DF-ISE text

Info {
  version   = 1.0
  type      = xyplot
  datasets  = [
    "time"
    "back OuterVoltage" "back InnerVoltage" "back QuasiFermiPotential" "back DisplacementCurrent" "back eCurrent"
    "back hCurrent" "back TotalCurrent" "back Charge" "front OuterVoltage" "front InnerVoltage"
    "front QuasiFermiPotential" "front DisplacementCurrent" "front eCurrent" "front hCurrent" "front TotalCurrent"
    "front Charge" "Stripe0 R_TE" "Stripe0 T_TE" "Stripe0 A_TE" "Stripe0 R_TM"
    "Stripe0 T_TM" "Stripe0 A_TM" "Stripe0 R_Total" "Stripe0 T_Total" "Stripe0 A_Total" ]
  functions = [
    Time
    OuterVoltage InnerVoltage QuasiFermiPotential DisplacementCurrent eCurrent
    hCurrent TotalCurrent Charge OuterVoltage InnerVoltage
    QuasiFermiPotential DisplacementCurrent eCurrent hCurrent TotalCurrent
    Charge R_TE T_TE A_TE R_TM
    T_TM A_TM R_Total T_Total A_Total ]
}

Data {
      0.00000000000000E+00
      0.00000000000000E+00   0.00000000000000E+00   0.00000000000000E+00   0.00000000000000E+00   3.07146423735025E+00
     -3.07146423735025E+00   8.64072956661112E-16   5.99600482980572E-20   0.00000000000000E+00   0.00000000000000E+00
      0.00000000000000E+00   0.00000000000000E+00   4.89996875500871E+00  -4.89996875500839E+00   3.19706993964611E-13
      5.45020968390346E-20   9.57305816147930E-01   1.05825684001723E-18   4.26941838520696E-02   9.57305816147930E-01
      1.05825684001723E-18   4.26941838520696E-02   9.57305816147930E-01   1.05825684001723E-18   4.26941838520696E-02
      1.00000000000000E-06
      0.00000000000000E+00   0.00000000000000E+00   0.00000000000000E+00  -1.41280903311823E+00   6.50695238985583E+00
      4.11784768408811E-16   5.09414335673760E+00   1.04277839967809E-18   0.00000000000000E+00   0.00000000000000E+00
      0.00000000000000E+00  -1.91127234375617E+00  -6.50695221824399E+00   5.66372820811463E-15  -8.41822456200015E+00
      3.46831525339311E-20   9.57305816147930E-01   1.05825684001723E-18   4.26941838520696E-02   9.57305816147930E-01
      1.05825684001723E-18   4.26941838520696E-02   9.57305816147930E-01   1.05825684001723E-18   4.26941838520696E-02
      3.00000000000000E-06
      0.00000000000000E+00   0.00000000000000E+00   0.00000000000000E+00  -1.36553166764714E+00   6.46013891429841E+00
      2.04204741710927E-16   5.09460724665127E+00   5.58491657097721E-19   0.00000000000000E+00   0.00000000000000E+00
      0.00000000000000E+00  -1.94768348039776E+00  -6.46013960329994E+00   3.28077700732266E-15  -8.40782308369770E+00
     -6.62695950201898E-20   9.57305816147930E-01   1.05825684001723E-18   4.26941838520696E-02   9.57305816147930E-01
      1.05825684001723E-18   4.26941838520696E-02   9.57305816147930E-01   1.05825684001723E-18   4.26941838520696E-02
      7.00000000000000E-06
      0.00000000000000E+00   0.00000000000000E+00   0.00000000000000E+00  -1.20513207019249E+00   6.30044337350904E+00
      3.45966711163140E-16   5.09531130331655E+00  -3.83411412777442E-20   0.00000000000000E+00   0.00000000000000E+00
      0.00000000000000E+00  -1.91552952830492E+00  -6.30044381647486E+00  -3.32128042716615E-15  -8.21597334477979E+00
     -9.59980114778450E-21   9.57305816147930E-01   1.05825684001723E-18   4.26941838520696E-02   9.57305816147930E-01
      1.05825684001723E-18   4.26941838520696E-02   9.57305816147930E-01   1.05825684001723E-18   4.26941838520696E-02
      1.50000000000000E-05
      0.00000000000000E+00   0.00000000000000E+00   0.00000000000000E+00  -4.25146029556321E-01   5.52094588335356E+00
      1.89015959269618E-16   5.09579985379724E+00   1.16513715543675E-20   0.00000000000000E+00   0.00000000000000E+00
      0.00000000000000E+00  -7.73694280397426E-01  -5.52094691040223E+00  -3.30777928721832E-16  -6.29464119079965E+00
      6.98308115750131E-20   9.57305816147930E-01   1.05825684001723E-18   4.26941838520696E-02   9.57305816147930E-01
      1.05825684001723E-18   4.26941838520696E-02   9.57305816147930E-01   1.05825684001723E-18   4.26941838520696E-02
      3.10000000000000E-05
      0.00000000000000E+00   0.00000000000000E+00   0.00000000000000E+00  -3.54233106250075E-02   5.13130380874579E+00
      3.69593706071843E-16   5.09588049812078E+00  -2.90471402471673E-19   0.00000000000000E+00   0.00000000000000E+00
      0.00000000000000E+00  -6.96005361037726E-02  -5.13130283583442E+00  -1.28260829504384E-16  -5.20090337193820E+00
      8.90304138705821E-20   9.57305816147930E-01   1.05825684001723E-18   4.26941838520696E-02   9.57305816147930E-01
      1.05825684001723E-18   4.26941838520696E-02   9.57305816147930E-01   1.05825684001723E-18   4.26941838520696E-02
      6.30000000000000E-05
      0.00000000000000E+00   0.00000000000000E+00   0.00000000000000E+00  -1.31457118693974E-03   5.09720104168604E+00
     -2.19393524152235E-17   5.09588647049910E+00  -6.20077478170806E-19   0.00000000000000E+00   0.00000000000000E+00
      0.00000000000000E+00  -2.61572554982600E-03  -5.09720047049955E+00   9.07255508962999E-15  -5.09981619604937E+00
      2.49285158837630E-20   9.57305816147930E-01   1.05825684001723E-18   4.26941838520696E-02   9.57305816147930E-01
      1.05825684001723E-18   4.26941838520696E-02   9.57305816147930E-01   1.05825684001723E-18   4.26941838520696E-02
      1.27000000000000E-04
      0.00000000000000E+00   0.00000000000000E+00   0.00000000000000E+00  -2.40002455132347E-05   5.09591069502998E+00
     -6.07551297652344E-17   5.09588669478447E+00  -2.24859858336614E-19   0.00000000000000E+00   0.00000000000000E+00
      0.00000000000000E+00  -4.91953473511916E-05  -5.09591134163293E+00   8.97825806530686E-16  -5.09596053698028E+00
     -1.37803597121423E-19   9.57305816147930E-01   1.05825684001723E-18   4.26941838520696E-02   9.57305816147930E-01
      1.05825684001723E-18   4.26941838520696E-02   9.57305816147930E-01   1.05825684001723E-18   4.26941838520696E-02
      2.55000000000000E-04
      0.00000000000000E+00   0.00000000000000E+00   0.00000000000000E+00  -2.31012838491036E-07   5.09588693004952E+00
      3.84782488513151E-16   5.09588669903668E+00  -2.37440242905283E-19   0.00000000000000E+00   0.00000000000000E+00
      0.00000000000000E+00  -5.59503894444309E-07  -5.09588683983284E+00   6.86511870815980E-15  -5.09588739933673E+00
      5.91471619105432E-20   9.57305816147930E-01   1.05825684001723E-18   4.26941838520696E-02   9.57305816147930E-01
      1.05825684001723E-18   4.26941838520696E-02   9.57305816147930E-01   1.05825684001723E-18   4.26941838520696E-02
      5.11000000000000E-04
      0.00000000000000E+00   0.00000000000000E+00   0.00000000000000E+00  -4.78868278645044E-07   5.09588717794547E+00
      5.23169172978407E-17   5.09588669907719E+00  -1.59867656211089E-20   0.00000000000000E+00   0.00000000000000E+00
      0.00000000000000E+00  -2.82229402082217E-08  -5.09588667408642E+00   5.40045597913195E-17  -5.09588670230936E+00
      7.50952186560562E-20   9.57305816147930E-01   1.05825684001723E-18   4.26941838520696E-02   9.57305816147930E-01
      1.05825684001723E-18   4.26941838520696E-02   9.57305816147930E-01   1.05825684001723E-18   4.26941838520696E-02
      1.02300000000000E-03
      0.00000000000000E+00   0.00000000000000E+00   0.00000000000000E+00  -4.10509708655117E-07   5.09588710958708E+00
      2.76773368930512E-16   5.09588669907738E+00  -1.66815899380554E-19   0.00000000000000E+00   0.00000000000000E+00
      0.00000000000000E+00  -4.24250558858510E-08  -5.09588665673525E+00   3.84782488513151E-15  -5.09588669916030E+00
      6.03858459296122E-20   9.57305816147930E-01   1.05825684001723E-18   4.26941838520696E-02   9.57305816147930E-01
      1.05825684001723E-18   4.26941838520696E-02   9.57305816147930E-01   1.05825684001723E-18   4.26941838520696E-02
      2.04700000000000E-03
      0.00000000000000E+00   0.00000000000000E+00   0.00000000000000E+00  -4.22813708356265E-07   5.09588712189109E+00
      3.76344276045758E-16   5.09588669907738E+00   2.81219981204252E-20   0.00000000000000E+00   0.00000000000000E+00
      0.00000000000000E+00  -1.23867692496668E-08  -5.09588668669425E+00  -5.99450613683646E-15  -5.09588669908103E+00
      7.63339026751252E-20   9.57305816147930E-01   1.05825684001723E-18   4.26941838520696E-02   9.57305816147930E-01
      1.05825684001723E-18   4.26941838520696E-02   9.57305816147930E-01   1.05825684001723E-18   4.26941838520696E-02
      4.09500000000000E-03
      0.00000000000000E+00   0.00000000000000E+00   0.00000000000000E+00  -3.88636005046848E-07   5.09588708771339E+00
      3.57780208617492E-16   5.09588669907738E+00  -7.11836867770900E-19   0.00000000000000E+00   0.00000000000000E+00
      0.00000000000000E+00  -1.24095729990661E-08  -5.09588668669195E+00   3.52379752638360E-15  -5.09588669910152E+00
      9.78560375064485E-20   9.57305816147930E-01   1.05825684001723E-18   4.26941838520696E-02   9.57305816147930E-01
      1.05825684001723E-18   4.26941838520696E-02   9.57305816147930E-01   1.05825684001723E-18   4.26941838520696E-02
      8.19100000000000E-03
      0.00000000000000E+00   0.00000000000000E+00   0.00000000000000E+00  -4.22813616764531E-07   5.09588712189100E+00
      4.67476970693609E-16   5.09588669907739E+00   3.30767341967010E-20   0.00000000000000E+00   0.00000000000000E+00
      0.00000000000000E+00   2.62754562874347E-09  -5.09588670171489E+00  -9.42970243231243E-17  -5.09588669908734E+00
      7.63339026751252E-20   9.57305816147930E-01   1.05825684001723E-18   4.26941838520696E-02   9.57305816147930E-01
      1.05825684001723E-18   4.26941838520696E-02   9.57305816147930E-01   1.05825684001723E-18   4.26941838520696E-02
      1.63830000000000E-02
      0.00000000000000E+00   0.00000000000000E+00   0.00000000000000E+00  -4.22813691074806E-07   5.09588712189108E+00
      1.06321477089160E-16   5.09588669907739E+00  -4.74628878119192E-19   0.00000000000000E+00   0.00000000000000E+00
      0.00000000000000E+00   2.63061913625031E-09  -5.09588670171489E+00  -3.01075420836606E-15  -5.09588669908427E+00
      8.70175523395950E-20   9.57305816147930E-01   1.05825684001723E-18   4.26941838520696E-02   9.57305816147930E-01
      1.05825684001723E-18   4.26941838520696E-02   9.57305816147930E-01   1.05825684001723E-18   4.26941838520696E-02
      3.27670000000000E-02
      0.00000000000000E+00   0.00000000000000E+00   0.00000000000000E+00  -4.22813687618514E-07   5.09588712189108E+00
      2.53146374021810E-17   5.09588669907739E+00  -4.80822298214537E-19   0.00000000000000E+00   0.00000000000000E+00
      0.00000000000000E+00   2.64207933587451E-09  -5.09588670171491E+00   2.82848881907036E-15  -5.09588669907283E+00
      7.94306127227976E-20   9.57305816147930E-01   1.05825684001723E-18   4.26941838520696E-02   9.57305816147930E-01
      1.05825684001723E-18   4.26941838520696E-02   9.57305816147930E-01   1.05825684001723E-18   4.26941838520696E-02
      6.55350000000000E-02
      0.00000000000000E+00   0.00000000000000E+00   0.00000000000000E+00  -4.22813693667025E-07   5.09588712189108E+00
      1.90703601763097E-16   5.09588669907739E+00  -7.11217525761365E-19   0.00000000000000E+00   0.00000000000000E+00
      0.00000000000000E+00   2.67581965668621E-09  -5.09588670171489E+00   1.74881953386734E-15  -5.09588669903907E+00
      8.90304138705821E-20   9.57305816147930E-01   1.05825684001723E-18   4.26941838520696E-02   9.57305816147930E-01
      1.05825684001723E-18   4.26941838520696E-02   9.57305816147930E-01   1.05825684001723E-18   4.26941838520696E-02
      1.00000000000000E-01
      0.00000000000000E+00   0.00000000000000E+00   0.00000000000000E+00  -3.88636059483445E-07   5.09588708771345E+00
      6.91933422326281E-17   5.09588669907739E+00  -4.66867748562213E-19   0.00000000000000E+00   0.00000000000000E+00
      0.00000000000000E+00   6.26788197090138E-08  -5.09588676180636E+00  -4.57688644231433E-15  -5.09588669912755E+00
      7.63339026751252E-20   9.57305816147930E-01   1.05825684001723E-18   4.26941838520696E-02   9.57305816147930E-01
      1.05825684001723E-18   4.26941838520696E-02   9.57305816147930E-01   1.05825684001723E-18   4.26941838520696E-02
      1.00000000000000E-02
      0.00000000000000E+00   0.00000000000000E+00   0.00000000000000E+00   0.00000000000000E+00   5.09585075348250E+00
     -1.17093382692067E-16   5.09585075348250E+00  -1.20400086653504E-18   5.00000000000000E-03   5.00000000000000E-03
      0.00000000000000E+00   0.00000000000000E+00  -5.09585083503391E+00   8.15035130268074E-08  -5.09585075353040E+00
     -2.19866413384742E-20   9.57305816147930E-01   1.05825684001723E-18   4.26941838520696E-02   9.57305816147930E-01
      1.05825684001723E-18   4.26941838520696E-02   9.57305816147930E-01   1.05825684001723E-18   4.26941838520696E-02
      2.00000000000000E-02
      0.00000000000000E+00   0.00000000000000E+00   0.00000000000000E+00   0.00000000000000E+00   5.09581467208721E+00
      1.89440506834384E-15   5.09581467208721E+00   2.09066637093484E-19   1.00000000000000E-02   1.00000000000000E-02
      0.00000000000000E+00   0.00000000000000E+00  -5.09581444261064E+00  -2.29463708133138E-07  -5.09581467207435E+00
     -7.44758766465217E-20   9.57305816147930E-01   1.05825684001723E-18   4.26941838520696E-02   9.57305816147930E-01
      1.05825684001723E-18   4.26941838520696E-02   9.57305816147930E-01   1.05825684001723E-18   4.26941838520696E-02
      3.00000000000000E-02
      0.00000000000000E+00   0.00000000000000E+00   0.00000000000000E+00   0.00000000000000E+00   5.09577845507807E+00
      2.54464844719840E-17   5.09577845507807E+00  -8.86104225703665E-19   1.50000000000000E-02   1.50000000000000E-02
      0.00000000000000E+00   0.00000000000000E+00  -5.09577836890151E+00  -8.62490635345263E-08  -5.09577845515057E+00
      8.15983097561683E-20   9.57305816147930E-01   1.05825684001723E-18   4.26941838520696E-02   9.57305816147930E-01
      1.05825684001723E-18   4.26941838520696E-02   9.57305816147930E-01   1.05825684001723E-18   4.26941838520696E-02
      4.00000000000000E-02
      0.00000000000000E+00   0.00000000000000E+00   0.00000000000000E+00   0.00000000000000E+00   5.09574210272419E+00
      6.99699214737679E-16   5.09574210272419E+00   2.70575040415378E-19   2.00000000000000E-02   2.00000000000000E-02
      0.00000000000000E+00   0.00000000000000E+00  -5.09574209420236E+00  -8.51839073642626E-09  -5.09574210272075E+00
     -8.98045913825002E-21   9.57305816147930E-01   1.05825684001723E-18   4.26941838520696E-02   9.57305816147930E-01
      1.05825684001723E-18   4.26941838520696E-02   9.57305816147930E-01   1.05825684001723E-18   4.26941838520696E-02
      5.00000000000000E-02
      0.00000000000000E+00   0.00000000000000E+00   0.00000000000000E+00   0.00000000000000E+00   5.09570561533826E+00
     -6.70363241706506E-16   5.09570561533825E+00  -1.30506974071595E-19   2.50000000000000E-02   2.50000000000000E-02
      0.00000000000000E+00   0.00000000000000E+00  -5.09570578562405E+00   1.70250857033133E-07  -5.09570561537319E+00
     -5.03215382746768E-20   9.57305816147930E-01   1.05825684001723E-18   4.26941838520696E-02   9.57305816147930E-01
      1.05825684001723E-18   4.26941838520696E-02   9.57305816147930E-01   1.05825684001723E-18   4.26941838520696E-02
      6.00000000000000E-02
      0.00000000000000E+00   0.00000000000000E+00   0.00000000000000E+00   0.00000000000000E+00   5.09566899323465E+00
     -1.25453805388277E-15   5.09566899323465E+00  -4.23939605526354E-19   3.00000000000000E-02   3.00000000000000E-02
      0.00000000000000E+00   0.00000000000000E+00  -5.09566901758475E+00   2.43680013315407E-08  -5.09566899321675E+00
      6.10051879391467E-20   9.57305816147930E-01   1.05825684001723E-18   4.26941838520696E-02   9.57305816147930E-01
      1.05825684001723E-18   4.26941838520696E-02   9.57305816147930E-01   1.05825684001723E-18   4.26941838520696E-02
      7.00000000000000E-02
      0.00000000000000E+00   0.00000000000000E+00   0.00000000000000E+00   0.00000000000000E+00   5.09563223668527E+00
     -2.11614547033857E-17   5.09563223668527E+00  -6.91727606898827E-20   3.50000000000000E-02   3.50000000000000E-02
      0.00000000000000E+00   0.00000000000000E+00  -5.09563222353442E+00  -1.30257547565585E-08  -5.09563223656018E+00
      2.09027928217888E-20   9.57305816147930E-01   1.05825684001723E-18   4.26941838520696E-02   9.57305816147930E-01
      1.05825684001723E-18   4.26941838520696E-02   9.57305816147930E-01   1.05825684001723E-18   4.26941838520696E-02
      8.00000000000000E-02
      0.00000000000000E+00   0.00000000000000E+00   0.00000000000000E+00   0.00000000000000E+00   5.09559534587483E+00
      2.27283252809248E-15   5.09559534587483E+00  -7.88073998257035E-19   4.00000000000000E-02   4.00000000000000E-02
      0.00000000000000E+00   0.00000000000000E+00  -5.09559519399598E+00  -1.51914857911204E-07  -5.09559534591084E+00
     -6.31728849725174E-20   9.57305816147930E-01   1.05825684001723E-18   4.26941838520696E-02   9.57305816147930E-01
      1.05825684001723E-18   4.26941838520696E-02   9.57305816147930E-01   1.05825684001723E-18   4.26941838520696E-02
      9.00000000000000E-02
      0.00000000000000E+00   0.00000000000000E+00   0.00000000000000E+00   0.00000000000000E+00   5.09555832085670E+00
     -2.13965380288445E-15   5.09555832085670E+00   3.01929229648061E-21   4.50000000000000E-02   4.50000000000000E-02
      0.00000000000000E+00   0.00000000000000E+00  -5.09555824762949E+00  -7.32163835471217E-08  -5.09555832084587E+00
      3.23606199981768E-20   9.57305816147930E-01   1.05825684001723E-18   4.26941838520696E-02   9.57305816147930E-01
      1.05825684001723E-18   4.26941838520696E-02   9.57305816147930E-01   1.05825684001723E-18   4.26941838520696E-02
      1.00000000000000E-01
      0.00000000000000E+00   0.00000000000000E+00   0.00000000000000E+00   0.00000000000000E+00   5.09552116151079E+00
      3.15947770310387E-15   5.09552116151080E+00   3.04987230820137E-19   5.00000000000000E-02   5.00000000000000E-02
      0.00000000000000E+00   0.00000000000000E+00  -5.09552116275249E+00   1.22552174438877E-09  -5.09552116152697E+00
      6.10051879391467E-20   9.57305816147930E-01   1.05825684001723E-18   4.26941838520696E-02   9.57305816147930E-01
      1.05825684001723E-18   4.26941838520696E-02   9.57305816147930E-01   1.05825684001723E-18   4.26941838520696E-02
      1.10000000000000E-01
      0.00000000000000E+00   0.00000000000000E+00   0.00000000000000E+00   0.00000000000000E+00   5.09548386750450E+00
     -1.76042207601000E-15   5.09548386750450E+00  -1.19240755829406E-18   5.50000000000000E-02   5.50000000000000E-02
      0.00000000000000E+00   0.00000000000000E+00  -5.09548395040983E+00   8.28464126956865E-08  -5.09548386756342E+00
     -7.75725866941941E-20   9.57305816147930E-01   1.05825684001723E-18   4.26941838520696E-02   9.57305816147930E-01
      1.05825684001723E-18   4.26941838520696E-02   9.57305816147930E-01   1.05825684001723E-18   4.26941838520696E-02
      1.20000000000000E-01
      0.00000000000000E+00   0.00000000000000E+00   0.00000000000000E+00   0.00000000000000E+00   5.09544643825778E+00
      4.54595511973854E-16   5.09544643825778E+00   4.35610331518520E-19   6.00000000000000E-02   6.00000000000000E-02
      0.00000000000000E+00   0.00000000000000E+00  -5.09544660429808E+00   1.65994901669223E-07  -5.09544643830318E+00
     -1.87350957884181E-20   9.57305816147930E-01   1.05825684001723E-18   4.26941838520696E-02   9.57305816147930E-01
      1.05825684001723E-18   4.26941838520696E-02   9.57305816147930E-01   1.05825684001723E-18   4.26941838520696E-02
      1.30000000000000E-01
      0.00000000000000E+00   0.00000000000000E+00   0.00000000000000E+00   0.00000000000000E+00   5.09540887291355E+00
     -5.88433472530905E-17   5.09540887291355E+00  -2.29717822223900E-19   6.50000000000000E-02   6.50000000000000E-02
      0.00000000000000E+00   0.00000000000000E+00  -5.09540886407401E+00  -8.83444541066135E-09  -5.09540887290845E+00
      3.03477584671897E-20   9.57305816147930E-01   1.05825684001723E-18   4.26941838520696E-02   9.57305816147930E-01
      1.05825684001723E-18   4.26941838520696E-02   9.57305816147930E-01   1.05825684001723E-18   4.26941838520696E-02
      1.40000000000000E-01
      0.00000000000000E+00   0.00000000000000E+00   0.00000000000000E+00   0.00000000000000E+00   5.09537117031365E+00
      5.50330987828529E-15   5.09537117031365E+00   2.20892198588033E-19   7.00000000000000E-02   7.00000000000000E-02
      0.00000000000000E+00   0.00000000000000E+00  -5.09537102121235E+00  -1.49049478106066E-07  -5.09537117026183E+00
     -5.89923264081596E-20   9.57305816147930E-01   1.05825684001723E-18   4.26941838520696E-02   9.57305816147930E-01
      1.05825684001723E-18   4.26941838520696E-02   9.57305816147930E-01   1.05825684001723E-18   4.26941838520696E-02
      1.50000000000000E-01
      0.00000000000000E+00   0.00000000000000E+00   0.00000000000000E+00   0.00000000000000E+00   5.09533332898089E+00
      1.73341979611434E-15   5.09533332898089E+00  -1.45545372240604E-19   7.50000000000000E-02   7.50000000000000E-02
      0.00000000000000E+00   0.00000000000000E+00  -5.09533362322751E+00   2.94283459745849E-07  -5.09533332894405E+00
     -3.93282176054397E-20   9.57305816147930E-01   1.05825684001723E-18   4.26941838520696E-02   9.57305816147930E-01
      1.05825684001723E-18   4.26941838520696E-02   9.57305816147930E-01   1.05825684001723E-18   4.26941838520696E-02
      1.60000000000000E-01
      0.00000000000000E+00   0.00000000000000E+00   0.00000000000000E+00   0.00000000000000E+00   5.09529534710768E+00
     -1.93740039780661E-15   5.09529534710767E+00  -3.07019446788923E-19   8.00000000000000E-02   8.00000000000000E-02
      0.00000000000000E+00   0.00000000000000E+00  -5.09529509458074E+00  -2.52587044234565E-07  -5.09529534716778E+00
      6.06955169343794E-20   9.57305816147930E-01   1.05825684001723E-18   4.26941838520696E-02   9.57305816147930E-01
      1.05825684001723E-18   4.26941838520696E-02   9.57305816147930E-01   1.05825684001723E-18   4.26941838520696E-02
      1.70000000000000E-01
      0.00000000000000E+00   0.00000000000000E+00   0.00000000000000E+00   0.00000000000000E+00   5.09525722255069E+00
     -8.68344801722730E-16   5.09525722255069E+00   6.31651431973982E-19   8.50000000000000E-02   8.50000000000000E-02
      0.00000000000000E+00   0.00000000000000E+00  -5.09525688896878E+00  -3.33620463183934E-07  -5.09525722258924E+00
     -3.00380874624225E-20   9.57305816147930E-01   1.05825684001723E-18   4.26941838520696E-02   9.57305816147930E-01
      1.05825684001723E-18   4.26941838520696E-02   9.57305816147930E-01   1.05825684001723E-18   4.26941838520696E-02
      1.80000000000000E-01
      0.00000000000000E+00   0.00000000000000E+00   0.00000000000000E+00   0.00000000000000E+00   5.09521895283171E+00
     -7.28520984196621E-16   5.09521895283171E+00   2.03918356639229E-19   9.00000000000000E-02   9.00000000000000E-02
      0.00000000000000E+00   0.00000000000000E+00  -5.09521885411656E+00  -9.87040077442997E-08  -5.09521895282057E+00
     -3.09671004767242E-21   9.57305816147930E-01   1.05825684001723E-18   4.26941838520696E-02   9.57305816147930E-01
      1.05825684001723E-18   4.26941838520696E-02   9.57305816147930E-01   1.05825684001723E-18   4.26941838520696E-02
      1.90000000000000E-01
      0.00000000000000E+00   0.00000000000000E+00   0.00000000000000E+00   0.00000000000000E+00   5.09518053514375E+00
      3.24620670562031E-16   5.09518053514375E+00   1.14462145137092E-19   9.50000000000000E-02   9.50000000000000E-02
      0.00000000000000E+00   0.00000000000000E+00  -5.09518005562673E+00  -4.79554548284103E-07  -5.09518053518128E+00
     -5.57407808581036E-21   9.57305816147930E-01   1.05825684001723E-18   4.26941838520696E-02   9.57305816147930E-01
      1.05825684001723E-18   4.26941838520696E-02   9.57305816147930E-01   1.05825684001723E-18   4.26941838520696E-02
      2.00000000000000E-01
      0.00000000000000E+00   0.00000000000000E+00   0.00000000000000E+00   0.00000000000000E+00   5.09514196636206E+00
     -9.67427874679704E-16   5.09514196636206E+00  -7.17043211538549E-19   1.00000000000000E-01   1.00000000000000E-01
      0.00000000000000E+00   0.00000000000000E+00  -5.09514208815192E+00   1.21703346715877E-07  -5.09514196644857E+00
     -6.34825559772846E-21   9.57305816147930E-01   1.05825684001723E-18   4.26941838520696E-02   9.57305816147930E-01
      1.05825684001723E-18   4.26941838520696E-02   9.57305816147930E-01   1.05825684001723E-18   4.26941838520696E-02
      2.10000000000000E-01
      0.00000000000000E+00   0.00000000000000E+00   0.00000000000000E+00   0.00000000000000E+00   5.09510324305901E+00
      3.83450833108141E-16   5.09510324305901E+00  -4.62745253311249E-19   1.05000000000000E-01   1.05000000000000E-01
      0.00000000000000E+00   0.00000000000000E+00  -5.09510337704064E+00   1.33890065604125E-07  -5.09510324315057E+00
      8.36111712871553E-21   9.57305816147930E-01   1.05825684001723E-18   4.26941838520696E-02   9.57305816147930E-01
      1.05825684001723E-18   4.26941838520696E-02   9.57305816147930E-01   1.05825684001723E-18   4.26941838520696E-02
      2.20000000000000E-01
      0.00000000000000E+00   0.00000000000000E+00   0.00000000000000E+00   0.00000000000000E+00   5.09506436152179E+00
      7.33834421109683E-16   5.09506436152179E+00  -9.34819345641112E-20   1.10000000000000E-01   1.10000000000000E-01
      0.00000000000000E+00   0.00000000000000E+00  -5.09506442218008E+00   6.05842889838156E-08  -5.09506436159579E+00
     -2.21414768408578E-20   9.57305816147930E-01   1.05825684001723E-18   4.26941838520696E-02   9.57305816147930E-01
      1.05825684001723E-18   4.26941838520696E-02   9.57305816147930E-01   1.05825684001723E-18   4.26941838520696E-02
      2.30000000000000E-01
      0.00000000000000E+00   0.00000000000000E+00   0.00000000000000E+00   0.00000000000000E+00   5.09502531777193E+00
      3.09936862398067E-15   5.09502531777193E+00   5.18892477363110E-20   1.15000000000000E-01   1.15000000000000E-01
      0.00000000000000E+00   0.00000000000000E+00  -5.09502566027894E+00   3.42466442855566E-07  -5.09502531781250E+00
      3.94830531078234E-20   9.57305816147930E-01   1.05825684001723E-18   4.26941838520696E-02   9.57305816147930E-01
      1.05825684001723E-18   4.26941838520696E-02   9.57305816147930E-01   1.05825684001723E-18   4.26941838520696E-02
      2.40000000000000E-01
      0.00000000000000E+00   0.00000000000000E+00   0.00000000000000E+00   0.00000000000000E+00   5.09498610758515E+00
      2.51156801738482E-15   5.09498610758516E+00   6.51451021841288E-19   1.20000000000000E-01   1.20000000000000E-01
      0.00000000000000E+00   0.00000000000000E+00  -5.09498621752620E+00   1.09939468765400E-07  -5.09498610758673E+00
     -2.22963123432414E-20   9.57305816147930E-01   1.05825684001723E-18   4.26941838520696E-02   9.57305816147930E-01
      1.05825684001723E-18   4.26941838520696E-02   9.57305816147930E-01   1.05825684001723E-18   4.26941838520696E-02
      2.50000000000000E-01
      0.00000000000000E+00   0.00000000000000E+00   0.00000000000000E+00   0.00000000000000E+00   5.09494672651042E+00
      3.11551989003155E-15   5.09494672651042E+00   3.92353163040096E-19   1.25000000000000E-01   1.25000000000000E-01
      0.00000000000000E+00   0.00000000000000E+00  -5.09494630587844E+00  -4.20541309963234E-07  -5.09494672641975E+00
     -3.03477584671897E-20   9.57305816147930E-01   1.05825684001723E-18   4.26941838520696E-02   9.57305816147930E-01
      1.05825684001723E-18   4.26941838520696E-02   9.57305816147930E-01   1.05825684001723E-18   4.26941838520696E-02
      2.60000000000000E-01
      0.00000000000000E+00   0.00000000000000E+00   0.00000000000000E+00   0.00000000000000E+00   5.09490716988674E+00
      3.15219974485075E-16   5.09490716988674E+00  -6.76979525296787E-19   1.30000000000000E-01   1.30000000000000E-01
      0.00000000000000E+00   0.00000000000000E+00  -5.09490692413048E+00  -2.45827902145775E-07  -5.09490716995838E+00
      2.77155549266682E-20   9.57305816147930E-01   1.05825684001723E-18   4.26941838520696E-02   9.57305816147930E-01
      1.05825684001723E-18   4.26941838520696E-02   9.57305816147930E-01   1.05825684001723E-18   4.26941838520696E-02
      2.70000000000000E-01
      0.00000000000000E+00   0.00000000000000E+00   0.00000000000000E+00   0.00000000000000E+00   5.09486743285576E+00
     -2.31918995783523E-16   5.09486743285576E+00   7.28036532207786E-19   1.35000000000000E-01   1.35000000000000E-01
      0.00000000000000E+00   0.00000000000000E+00  -5.09486758632678E+00   1.53548695121928E-07  -5.09486743277808E+00
      6.64244305225734E-20   9.57305816147930E-01   1.05825684001723E-18   4.26941838520696E-02   9.57305816147930E-01
      1.05825684001723E-18   4.26941838520696E-02   9.57305816147930E-01   1.05825684001723E-18   4.26941838520696E-02
      2.80000000000000E-01
      0.00000000000000E+00   0.00000000000000E+00   0.00000000000000E+00   0.00000000000000E+00   5.09482751036937E+00
      2.81054443287017E-15   5.09482751036937E+00   8.92084746983233E-19   1.40000000000000E-01   1.40000000000000E-01
      0.00000000000000E+00   0.00000000000000E+00  -5.09482772591811E+00   2.15544543694621E-07  -5.09482751037357E+00
     -5.57407808581036E-21   9.57305816147930E-01   1.05825684001723E-18   4.26941838520696E-02   9.57305816147930E-01
      1.05825684001723E-18   4.26941838520696E-02   9.57305816147930E-01   1.05825684001723E-18   4.26941838520696E-02
      2.90000000000000E-01
      0.00000000000000E+00   0.00000000000000E+00   0.00000000000000E+00   0.00000000000000E+00   5.09478739719029E+00
      3.07559659729519E-16   5.09478739719029E+00  -4.02494888446223E-19   1.45000000000000E-01   1.45000000000000E-01
      0.00000000000000E+00   0.00000000000000E+00  -5.09478749774569E+00   1.00570349767379E-07  -5.09478739717534E+00