DF-ISE text

Info {
  version   = 1.0
  type      = xyplot
  datasets  = [
    "time"
    "back OuterVoltage" "back InnerVoltage" "back QuasiFermiPotential" "back DisplacementCurrent" "back eCurrent"
    "back hCurrent" "back TotalCurrent" "back Charge" "front OuterVoltage" "front InnerVoltage"
    "front QuasiFermiPotential" "front DisplacementCurrent" "front eCurrent" "front hCurrent" "front TotalCurrent"
    "front Charge" "Stripe0 R_TE" "Stripe0 T_TE" "Stripe0 A_TE" "Stripe0 R_TM"
    "Stripe0 T_TM" "Stripe0 A_TM" "Stripe0 R_Total" "Stripe0 T_Total" "Stripe0 A_Total" ]
  functions = [
    Time
    OuterVoltage InnerVoltage QuasiFermiPotential DisplacementCurrent eCurrent
    hCurrent TotalCurrent Charge OuterVoltage InnerVoltage
    QuasiFermiPotential DisplacementCurrent eCurrent hCurrent TotalCurrent
    Charge R_TE T_TE A_TE R_TM
    T_TM A_TM R_Total T_Total A_Total ]
}

Data {
      0.00000000000000E+00
      0.00000000000000E+00   0.00000000000000E+00   0.00000000000000E+00   0.00000000000000E+00   3.07146423735025E+01
     -3.07146423735025E+01  -2.07377509598667E-14   5.99600482980572E-20   0.00000000000000E+00   0.00000000000000E+00
      0.00000000000000E+00   0.00000000000000E+00   4.89996875500849E+01  -4.89996875500845E+01   3.73279517277600E-13
      5.45020968390346E-20   9.57305816147930E-01   1.05825684001723E-18   4.26941838520696E-02   9.57305816147930E-01
      1.05825684001723E-18   4.26941838520696E-02   9.57305816147930E-01   1.05825684001723E-18   4.26941838520696E-02
      1.00000000000000E-06
      0.00000000000000E+00   0.00000000000000E+00   0.00000000000000E+00  -1.21104192631821E+01   6.30670003020602E+01
      1.41761969452214E-15   5.09565810388782E+01   1.45138929046847E-19   0.00000000000000E+00   0.00000000000000E+00
      0.00000000000000E+00  -1.92240511719054E+01  -6.30669991463624E+01  -5.65967786613028E-14  -8.22910503182679E+01
      1.17674981811552E-20   9.57305816147930E-01   1.05825684001723E-18   4.26941838520696E-02   9.57305816147930E-01
      1.05825684001723E-18   4.26941838520696E-02   9.57305816147930E-01   1.05825684001723E-18   4.26941838520696E-02
      3.00000000000000E-06
      0.00000000000000E+00   0.00000000000000E+00   0.00000000000000E+00  -1.80587325836625E+00   5.27678813767827E+01
      6.48054717495834E-16   5.09620081184164E+01  -8.76446361242487E-19   0.00000000000000E+00   0.00000000000000E+00
      0.00000000000000E+00  -3.76595971334771E+00  -5.27678809709655E+01   7.16100462832896E-14  -5.65338406843131E+01
     -3.62315075577673E-20   9.57305816147930E-01   1.05825684001723E-18   4.26941838520696E-02   9.57305816147930E-01
      1.05825684001723E-18   4.26941838520696E-02   9.57305816147930E-01   1.05825684001723E-18   4.26941838520696E-02
      7.00000000000000E-06
      0.00000000000000E+00   0.00000000000000E+00   0.00000000000000E+00  -5.82301861140293E-02   5.10205433808260E+01
      8.64072956661112E-16   5.09623131947120E+01   2.56988225081215E-19   0.00000000000000E+00   0.00000000000000E+00
      0.00000000000000E+00  -1.32976146363154E-01  -5.10205448915981E+01   2.40860336669285E-14  -5.11535210379612E+01
      5.24118175568557E-20   9.57305816147930E-01   1.05825684001723E-18   4.26941838520696E-02   9.57305816147930E-01
      1.05825684001723E-18   4.26941838520696E-02   9.57305816147930E-01   1.05825684001723E-18   4.26941838520696E-02
      1.50000000000000E-05
      0.00000000000000E+00   0.00000000000000E+00   0.00000000000000E+00  -9.49349937989891E-04   5.09632725027878E+01
     -1.40411855457431E-15   5.09623231528498E+01  -7.79983843257491E-20   0.00000000000000E+00   0.00000000000000E+00
      0.00000000000000E+00  -2.18394317688071E-03  -5.09632733435491E+01   1.12005457007197E-13  -5.09654572867259E+01
     -4.04894838733169E-20   9.57305816147930E-01   1.05825684001723E-18   4.26941838520696E-02   9.57305816147930E-01
      1.05825684001723E-18   4.26941838520696E-02   9.57305816147930E-01   1.05825684001723E-18   4.26941838520696E-02
      3.10000000000000E-05
      0.00000000000000E+00   0.00000000000000E+00   0.00000000000000E+00  -8.23501521142024E-06   5.09623315524938E+01
     -7.56063837078473E-16   5.09623233174786E+01  -5.93039328567066E-19   0.00000000000000E+00   0.00000000000000E+00
      0.00000000000000E+00  -1.79680222920066E-05  -5.09623310595922E+01   3.76951827343410E-14  -5.09623490276145E+01
     -1.48642082288276E-20   9.57305816147930E-01   1.05825684001723E-18   4.26941838520696E-02   9.57305816147930E-01
      1.05825684001723E-18   4.26941838520696E-02   9.57305816147930E-01   1.05825684001723E-18   4.26941838520696E-02
      6.30000000000000E-05
      0.00000000000000E+00   0.00000000000000E+00   0.00000000000000E+00  -2.85661434196530E-07   5.09623236044946E+01
      2.97025078852257E-15   5.09623233188332E+01   1.79493056138213E-19   0.00000000000000E+00   0.00000000000000E+00
      0.00000000000000E+00  -1.24149435581209E-07  -5.09623233015052E+01   3.67231006580972E-14  -5.09623234256546E+01
      1.90447667931854E-20   9.57305816147930E-01   1.05825684001723E-18   4.26941838520696E-02   9.57305816147930E-01
      1.05825684001723E-18   4.26941838520696E-02   9.57305816147930E-01   1.05825684001723E-18   4.26941838520696E-02
      1.27000000000000E-04
      0.00000000000000E+00   0.00000000000000E+00   0.00000000000000E+00  -1.17371916899922E-07   5.09623234362110E+01
     -1.94416415248750E-15   5.09623233188390E+01   4.62919443251431E-19   0.00000000000000E+00   0.00000000000000E+00
      0.00000000000000E+00   2.50882269575660E-08  -5.09623233403521E+01   1.08009119582639E-15  -5.09623233152639E+01
      5.56633631069118E-20   9.57305816147930E-01   1.05825684001723E-18   4.26941838520696E-02   9.57305816147930E-01
      1.05825684001723E-18   4.26941838520696E-02   9.57305816147930E-01   1.05825684001723E-18   4.26941838520696E-02
      2.55000000000000E-04
      0.00000000000000E+00   0.00000000000000E+00   0.00000000000000E+00  -1.17372248703937E-07   5.09623234362110E+01
     -3.24027358747917E-16   5.09623233188388E+01   2.47330360620037E-19   0.00000000000000E+00   0.00000000000000E+00
      0.00000000000000E+00  -4.05877326263088E-08  -5.09623232781851E+01   1.09089210778465E-13  -5.09623233187727E+01
      7.16114198524247E-20   9.57305816147930E-01   1.05825684001723E-18   4.26941838520696E-02   9.57305816147930E-01
      1.05825684001723E-18   4.26941838520696E-02   9.57305816147930E-01   1.05825684001723E-18   4.26941838520696E-02
      5.11000000000000E-04
      0.00000000000000E+00   0.00000000000000E+00   0.00000000000000E+00  -1.39245937622965E-07   5.09623234580847E+01
      2.97025078852257E-16   5.09623233188388E+01  -2.59291403179171E-19   0.00000000000000E+00   0.00000000000000E+00
      0.00000000000000E+00  -2.07007824624889E-08  -5.09623232980386E+01   9.15917334060778E-14  -5.09623233187393E+01
      2.63220354052156E-20   9.57305816147930E-01   1.05825684001723E-18   4.26941838520696E-02   9.57305816147930E-01
      1.05825684001723E-18   4.26941838520696E-02   9.57305816147930E-01   1.05825684001723E-18   4.26941838520696E-02
      1.02300000000000E-03
      0.00000000000000E+00   0.00000000000000E+00   0.00000000000000E+00  -1.05068167779931E-07   5.09623234239070E+01
     -6.21052437600174E-16   5.09623233188388E+01  -2.43188510931275E-19   0.00000000000000E+00   0.00000000000000E+00
      0.00000000000000E+00   1.94895802925106E-08  -5.09623233382994E+01  -3.48869456251924E-14  -5.09623233188098E+01
      3.70056850696854E-20   9.57305816147930E-01   1.05825684001723E-18   4.26941838520696E-02   9.57305816147930E-01
      1.05825684001723E-18   4.26941838520696E-02   9.57305816147930E-01   1.05825684001723E-18   4.26941838520696E-02
      2.04700000000000E-03
      0.00000000000000E+00   0.00000000000000E+00   0.00000000000000E+00  -8.31945687244904E-08   5.09623234020334E+01
     -1.90366073264401E-15   5.09623233188388E+01   2.38407964795180E-19   0.00000000000000E+00   0.00000000000000E+00
      0.00000000000000E+00  -8.09475435444013E-08  -5.09623232379465E+01  -4.86041038121875E-14  -5.09623233188941E+01
      6.11600234415303E-20   9.57305816147930E-01   1.05825684001723E-18   4.26941838520696E-02   9.57305816147930E-01
      1.05825684001723E-18   4.26941838520696E-02   9.57305816147930E-01   1.05825684001723E-18   4.26941838520696E-02
      4.09500000000000E-03
      0.00000000000000E+00   0.00000000000000E+00   0.00000000000000E+00  -1.05068423545526E-07   5.09623234239072E+01
     -3.91533058487066E-16   5.09623233188388E+01   1.73028673913696E-20   0.00000000000000E+00   0.00000000000000E+00
      0.00000000000000E+00  -4.06397912938017E-08  -5.09623232782079E+01  -1.29610943499167E-14  -5.09623233188477E+01
      6.11600234415303E-20   9.57305816147930E-01   1.05825684001723E-18   4.26941838520696E-02   9.57305816147930E-01
      1.05825684001723E-18   4.26941838520696E-02   9.57305816147930E-01   1.05825684001723E-18   4.26941838520696E-02
      8.19100000000000E-03
      0.00000000000000E+00   0.00000000000000E+00   0.00000000000000E+00  -1.05068209255433E-07   5.09623234239070E+01
      3.64530778591407E-16   5.09623233188388E+01   9.50302895879474E-21   0.00000000000000E+00   0.00000000000000E+00
      0.00000000000000E+00  -8.11180355076260E-08  -5.09623232379465E+01  -5.99450613683646E-14  -5.09623233190647E+01
      4.72248282270044E-20   9.57305816147930E-01   1.05825684001723E-18   4.26941838520696E-02   9.57305816147930E-01
      1.05825684001723E-18   4.26941838520696E-02   9.57305816147930E-01   1.05825684001723E-18   4.26941838520696E-02
      1.63830000000000E-02
      0.00000000000000E+00   0.00000000000000E+00   0.00000000000000E+00  -8.31946862384125E-08   5.09623234020335E+01
     -7.69564977026303E-16   5.09623233188388E+01   2.37788622785646E-19   0.00000000000000E+00   0.00000000000000E+00
      0.00000000000000E+00  -4.06326298571369E-08  -5.09623232782079E+01  -1.69574317744743E-14  -5.09623233188406E+01
      5.89923264081596E-20   9.57305816147930E-01   1.05825684001723E-18   4.26941838520696E-02   9.57305816147930E-01
      1.05825684001723E-18   4.26941838520696E-02   9.57305816147930E-01   1.05825684001723E-18   4.26941838520696E-02
      3.27670000000000E-02
      0.00000000000000E+00   0.00000000000000E+00   0.00000000000000E+00  -8.31946101999923E-08   5.09623234020334E+01
     -8.10068396869792E-17   5.09623233188388E+01  -4.84112552640189E-19   0.00000000000000E+00   0.00000000000000E+00
      0.00000000000000E+00  -8.08198612117414E-08  -5.09623232379466E+01  -9.32118701998174E-14  -5.09623233187666E+01
      7.04501535845476E-20   9.57305816147930E-01   1.05825684001723E-18   4.26941838520696E-02   9.57305816147930E-01
      1.05825684001723E-18   4.26941838520696E-02   9.57305816147930E-01   1.05825684001723E-18   4.26941838520696E-02
      6.55350000000000E-02
      0.00000000000000E+00   0.00000000000000E+00   0.00000000000000E+00  -8.31946101999923E-08   5.09623234020334E+01
      1.83615503290486E-15   5.09623233188388E+01   1.25997390064672E-20   0.00000000000000E+00   0.00000000000000E+00
      0.00000000000000E+00  -4.03295407142748E-08  -5.09623232782078E+01  -1.81455320898833E-14  -5.09623233185374E+01
      5.74439713843234E-20   9.57305816147930E-01   1.05825684001723E-18   4.26941838520696E-02   9.57305816147930E-01
      1.05825684001723E-18   4.26941838520696E-02   9.57305816147930E-01   1.05825684001723E-18   4.26941838520696E-02
      1.00000000000000E-01
      0.00000000000000E+00   0.00000000000000E+00   0.00000000000000E+00  -1.17372200315851E-07   5.09623234362110E+01
      9.18077516452431E-16   5.09623233188388E+01  -7.58481062863965E-19   0.00000000000000E+00   0.00000000000000E+00
      0.00000000000000E+00  -8.09276353034798E-08  -5.09623232379465E+01   9.31038610802348E-14  -5.09623233188740E+01
      5.74439713843234E-20   9.57305816147930E-01   1.05825684001723E-18   4.26941838520696E-02   9.57305816147930E-01
      1.05825684001723E-18   4.26941838520696E-02   9.57305816147930E-01   1.05825684001723E-18   4.26941838520696E-02
      1.00000000000000E-02
      0.00000000000000E+00   0.00000000000000E+00   0.00000000000000E+00   0.00000000000000E+00   5.09618565219264E+01
      1.76147685256843E-17   5.09618565219264E+01  -1.23082611732300E-18   7.00000000000000E-03   7.00000000000000E-03
      0.00000000000000E+00   0.00000000000000E+00  -5.09618565477782E+01   2.57286061689923E-08  -5.09618565220496E+01
     -6.81276210487932E-21   9.57305816147930E-01   1.05825684001723E-18   4.26941838520696E-02   9.57305816147930E-01
      1.05825684001723E-18   4.26941838520696E-02   9.57305816147930E-01   1.05825684001723E-18   4.26941838520696E-02
      2.00000000000000E-02
      0.00000000000000E+00   0.00000000000000E+00   0.00000000000000E+00   0.00000000000000E+00   5.09613873807261E+01
     -1.64174916542170E-14   5.09613873807261E+01  -7.81841869286094E-19   1.40000000000000E-02   1.40000000000000E-02
      0.00000000000000E+00   0.00000000000000E+00  -5.09613873802474E+01  -6.70915775858871E-10  -5.09613873809184E+01
     -2.98832519600389E-20   9.57305816147930E-01   1.05825684001723E-18   4.26941838520696E-02   9.57305816147930E-01
      1.05825684001723E-18   4.26941838520696E-02   9.57305816147930E-01   1.05825684001723E-18   4.26941838520696E-02
      3.00000000000000E-02
      0.00000000000000E+00   0.00000000000000E+00   0.00000000000000E+00   0.00000000000000E+00   5.09609158681802E+01
      2.21342751232203E-14   5.09609158681803E+01   9.62651027194568E-19   2.10000000000000E-02   2.10000000000000E-02
      0.00000000000000E+00   0.00000000000000E+00  -5.09609158670056E+01  -1.06398052854716E-09  -5.09609158680696E+01
     -4.49797134424419E-20   9.57305816147930E-01   1.05825684001723E-18   4.26941838520696E-02   9.57305816147930E-01
      1.05825684001723E-18   4.26941838520696E-02   9.57305816147930E-01   1.05825684001723E-18   4.26941838520696E-02
      4.00000000000000E-02
      0.00000000000000E+00   0.00000000000000E+00   0.00000000000000E+00   0.00000000000000E+00   5.09604419571850E+01
      5.80781068599538E-15   5.09604419571850E+01  -7.27978468894392E-19   2.80000000000000E-02   2.80000000000000E-02
      0.00000000000000E+00   0.00000000000000E+00  -5.09604416876205E+01  -2.69441334510923E-07  -5.09604419570619E+01
      9.44496564540088E-21   9.57305816147930E-01   1.05825684001723E-18   4.26941838520696E-02   9.57305816147930E-01
      1.05825684001723E-18   4.26941838520696E-02   9.57305816147930E-01   1.05825684001723E-18   4.26941838520696E-02
      5.00000000000000E-02
      0.00000000000000E+00   0.00000000000000E+00   0.00000000000000E+00   0.00000000000000E+00   5.09599656207485E+01
     -2.28306386070920E-15   5.09599656207485E+01   6.82205223502234E-19   3.50000000000000E-02   3.50000000000000E-02
      0.00000000000000E+00   0.00000000000000E+00  -5.09599656256779E+01   5.28111574094887E-09  -5.09599656203968E+01
     -2.47736803813794E-20   9.57305816147930E-01   1.05825684001723E-18   4.26941838520696E-02   9.57305816147930E-01
      1.05825684001723E-18   4.26941838520696E-02   9.57305816147930E-01   1.05825684001723E-18   4.26941838520696E-02
      6.00000000000000E-02
      0.00000000000000E+00   0.00000000000000E+00   0.00000000000000E+00   0.00000000000000E+00   5.09594868321261E+01
      6.93810924600276E-15   5.09594868321261E+01  -5.24718163140294E-19   4.20000000000000E-02   4.20000000000000E-02
      0.00000000000000E+00   0.00000000000000E+00  -5.09594869178019E+01   8.55209869462579E-08  -5.09594868322809E+01
      5.05537915282523E-20   9.57305816147930E-01   1.05825684001723E-18   4.26941838520696E-02   9.57305816147930E-01
      1.05825684001723E-18   4.26941838520696E-02   9.57305816147930E-01   1.05825684001723E-18   4.26941838520696E-02
      7.00000000000000E-02
      0.00000000000000E+00   0.00000000000000E+00   0.00000000000000E+00   0.00000000000000E+00   5.09590055649213E+01
     -8.00533216781637E-15   5.09590055649213E+01   1.09371927996230E-19   4.90000000000000E-02   4.90000000000000E-02
      0.00000000000000E+00   0.00000000000000E+00  -5.09590055462072E+01  -1.87310595652384E-08  -5.09590055649383E+01
      5.71343003795562E-20   9.57305816147930E-01   1.05825684001723E-18   4.26941838520696E-02   9.57305816147930E-01
      1.05825684001723E-18   4.26941838520696E-02   9.57305816147930E-01   1.05825684001723E-18   4.26941838520696E-02
      8.00000000000000E-02
      0.00000000000000E+00   0.00000000000000E+00   0.00000000000000E+00   0.00000000000000E+00   5.09585217931479E+01
      1.27017247942002E-14   5.09585217931479E+01   3.66456925266435E-19   5.60000000000000E-02   5.60000000000000E-02
      0.00000000000000E+00   0.00000000000000E+00  -5.09585218165864E+01   2.35692976960025E-08  -5.09585217930171E+01
     -1.98963620562953E-20   9.57305816147930E-01   1.05825684001723E-18   4.26941838520696E-02   9.57305816147930E-01
      1.05825684001723E-18   4.26941838520696E-02   9.57305816147930E-01   1.05825684001723E-18   4.26941838520696E-02
      9.00000000000000E-02
      0.00000000000000E+00   0.00000000000000E+00   0.00000000000000E+00   0.00000000000000E+00   5.09580354912403E+01
      1.08637766411460E-14   5.09580354912403E+01   5.52724034633931E-19   6.30000000000000E-02   6.30000000000000E-02
      0.00000000000000E+00   0.00000000000000E+00  -5.09580354752534E+01  -1.57278232776363E-08  -5.09580354909812E+01
     -8.24499050192782E-20   9.57305816147930E-01   1.05825684001723E-18   4.26941838520696E-02   9.57305816147930E-01
      1.05825684001723E-18   4.26941838520696E-02   9.57305816147930E-01   1.05825684001723E-18   4.26941838520696E-02
      1.00000000000000E-01
      0.00000000000000E+00   0.00000000000000E+00   0.00000000000000E+00   0.00000000000000E+00   5.09575466340121E+01
     -3.24259409590770E-15   5.09575466340121E+01   2.23485693252959E-19   7.00000000000000E-02   7.00000000000000E-02
      0.00000000000000E+00   0.00000000000000E+00  -5.09575467491662E+01   1.15244300246782E-07  -5.09575466339219E+01
     -2.22188945920496E-20   9.57305816147930E-01   1.05825684001723E-18   4.26941838520696E-02   9.57305816147930E-01
      1.05825684001723E-18   4.26941838520696E-02   9.57305816147930E-01   1.05825684001723E-18   4.26941838520696E-02
      1.10000000000000E-01
      0.00000000000000E+00   0.00000000000000E+00   0.00000000000000E+00   0.00000000000000E+00   5.09570551965558E+01
     -1.28076243606660E-14   5.09570551965558E+01   1.10668675328693E-19   7.70000000000000E-02   7.70000000000000E-02
      0.00000000000000E+00   0.00000000000000E+00  -5.09570550956073E+01  -1.00596846531475E-07  -5.09570551962042E+01
     -1.30061822002242E-20   9.57305816147930E-01   1.05825684001723E-18   4.26941838520696E-02   9.57305816147930E-01
      1.05825684001723E-18   4.26941838520696E-02   9.57305816147930E-01   1.05825684001723E-18   4.26941838520696E-02
      1.20000000000000E-01
      0.00000000000000E+00   0.00000000000000E+00   0.00000000000000E+00   0.00000000000000E+00   5.09565611540907E+01
     -2.83639964325854E-15   5.09565611540907E+01   2.02408710490989E-19   8.40000000000000E-02   8.40000000000000E-02
      0.00000000000000E+00   0.00000000000000E+00  -5.09565609638883E+01  -1.90183720218954E-07  -5.09565611540720E+01
      4.72248282270044E-21   9.57305816147930E-01   1.05825684001723E-18   4.26941838520696E-02   9.57305816147930E-01
      1.05825684001723E-18   4.26941838520696E-02   9.57305816147930E-01   1.05825684001723E-18   4.26941838520696E-02
      1.30000000000000E-01
      0.00000000000000E+00   0.00000000000000E+00   0.00000000000000E+00   0.00000000000000E+00   5.09560644817587E+01
      9.74444775734621E-15   5.09560644817587E+01  -7.11294943512557E-19   9.10000000000000E-02   9.10000000000000E-02
      0.00000000000000E+00   0.00000000000000E+00  -5.09560644348272E+01  -4.69373454726550E-08  -5.09560644817646E+01
      3.87862933470971E-20   9.57305816147930E-01   1.05825684001723E-18   4.26941838520696E-02   9.57305816147930E-01
      1.05825684001723E-18   4.26941838520696E-02   9.57305816147930E-01   1.05825684001723E-18   4.26941838520696E-02
      1.40000000000000E-01
      0.00000000000000E+00   0.00000000000000E+00   0.00000000000000E+00   0.00000000000000E+00   5.09555651543805E+01
     -2.15216608980876E-15   5.09555651543805E+01  -2.62330049913450E-19   9.80000000000000E-02   9.80000000000000E-02
      0.00000000000000E+00   0.00000000000000E+00  -5.09555651395429E+01  -1.50240548167869E-08  -5.09555651545670E+01
      3.05800117207651E-20   9.57305816147930E-01   1.05825684001723E-18   4.26941838520696E-02   9.57305816147930E-01
      1.05825684001723E-18   4.26941838520696E-02   9.57305816147930E-01   1.05825684001723E-18   4.26941838520696E-02
      1.50000000000000E-01
      0.00000000000000E+00   0.00000000000000E+00   0.00000000000000E+00   0.00000000000000E+00   5.09550631461844E+01
      5.20943594440132E-15   5.09550631461844E+01   7.09340145294964E-20   1.05000000000000E-01   1.05000000000000E-01
      0.00000000000000E+00   0.00000000000000E+00  -5.09550631454183E+01  -9.29995077318215E-10  -5.09550631463483E+01
      9.75463665016812E-21   9.57305816147930E-01   1.05825684001723E-18   4.26941838520696E-02   9.57305816147930E-01
      1.05825684001723E-18   4.26941838520696E-02   9.57305816147930E-01   1.05825684001723E-18   4.26941838520696E-02
      1.60000000000000E-01
      0.00000000000000E+00   0.00000000000000E+00   0.00000000000000E+00   0.00000000000000E+00   5.09545584305196E+01
     -7.88350547531838E-15   5.09545584305196E+01  -5.07473359062318E-19   1.12000000000000E-01   1.12000000000000E-01
      0.00000000000000E+00   0.00000000000000E+00  -5.09545583589293E+01  -7.16668334786535E-08  -5.09545584305962E+01
      2.77155549266682E-20   9.57305816147930E-01   1.05825684001723E-18   4.26941838520696E-02   9.57305816147930E-01
      1.05825684001723E-18   4.26941838520696E-02   9.57305816147930E-01   1.05825684001723E-18   4.26941838520696E-02
      1.70000000000000E-01
      0.00000000000000E+00   0.00000000000000E+00   0.00000000000000E+00   0.00000000000000E+00   5.09540509795719E+01
     -7.38343590896946E-19   5.09540509795719E+01   2.53659261779967E-19   1.19000000000000E-01   1.19000000000000E-01
      0.00000000000000E+00   0.00000000000000E+00  -5.09540512120080E+01   2.32556479800373E-07  -5.09540509794515E+01
     -9.21271239182545E-21   9.57305816147930E-01   1.05825684001723E-18   4.26941838520696E-02   9.57305816147930E-01
      1.05825684001723E-18   4.26941838520696E-02   9.57305816147930E-01   1.05825684001723E-18   4.26941838520696E-02
      1.80000000000000E-01
      0.00000000000000E+00   0.00000000000000E+00   0.00000000000000E+00   0.00000000000000E+00   5.09535407640978E+01
      5.84093066992990E-15   5.09535407640978E+01   2.02079685048423E-19   1.26000000000000E-01   1.26000000000000E-01
      0.00000000000000E+00   0.00000000000000E+00  -5.09535407739937E+01   9.98464743260857E-09  -5.09535407640091E+01
     -1.32384354537996E-20   9.57305816147930E-01   1.05825684001723E-18   4.26941838520696E-02   9.57305816147930E-01
      1.05825684001723E-18   4.26941838520696E-02   9.57305816147930E-01   1.05825684001723E-18   4.26941838520696E-02
      1.90000000000000E-01
      0.00000000000000E+00   0.00000000000000E+00   0.00000000000000E+00   0.00000000000000E+00   5.09530277531858E+01
      5.81097501567065E-15   5.09530277531858E+01   8.05841372155556E-19   1.33000000000000E-01   1.33000000000000E-01
      0.00000000000000E+00   0.00000000000000E+00  -5.09530275654067E+01  -1.87784330657965E-07  -5.09530277531911E+01
     -2.77929726778600E-20   9.57305816147930E-01   1.05825684001723E-18   4.26941838520696E-02   9.57305816147930E-01
      1.05825684001723E-18   4.26941838520696E-02   9.57305816147930E-01   1.05825684001723E-18   4.26941838520696E-02
      2.00000000000000E-01
      0.00000000000000E+00   0.00000000000000E+00   0.00000000000000E+00   0.00000000000000E+00   5.09525119140638E+01
     -2.70073428231402E-14   5.09525119140638E+01   1.02230140448786E-18   1.40000000000000E-01   1.40000000000000E-01
      0.00000000000000E+00   0.00000000000000E+00  -5.09525116976768E+01  -2.16472766750485E-07  -5.09525119141496E+01
      1.54835502383621E-21   9.57305816147930E-01   1.05825684001723E-18   4.26941838520696E-02   9.57305816147930E-01
      1.05825684001723E-18   4.26941838520696E-02   9.57305816147930E-01   1.05825684001723E-18   4.26941838520696E-02
      2.10000000000000E-01
      0.00000000000000E+00   0.00000000000000E+00   0.00000000000000E+00   0.00000000000000E+00   5.09519932119530E+01
     -1.43925316173542E-14   5.09519932119530E+01   1.18836248079429E-19   1.47000000000000E-01   1.47000000000000E-01
      0.00000000000000E+00   0.00000000000000E+00  -5.09519928933587E+01  -3.18553798777488E-07  -5.09519932119125E+01
     -5.55859453557199E-20   9.57305816147930E-01   1.05825684001723E-18   4.26941838520696E-02   9.57305816147930E-01
      1.05825684001723E-18   4.26941838520696E-02   9.57305816147930E-01   1.05825684001723E-18   4.26941838520696E-02
      2.20000000000000E-01
      0.00000000000000E+00   0.00000000000000E+00   0.00000000000000E+00   0.00000000000000E+00   5.09514716099772E+01
     -1.03977763576342E-14   5.09514716099772E+01   7.58384290674976E-19   1.54000000000000E-01   1.54000000000000E-01
      0.00000000000000E+00   0.00000000000000E+00  -5.09514716356383E+01   2.56909861234771E-08  -5.09514716099473E+01
      2.18318058360906E-20   9.57305816147930E-01   1.05825684001723E-18   4.26941838520696E-02   9.57305816147930E-01
      1.05825684001723E-18   4.26941838520696E-02   9.57305816147930E-01   1.05825684001723E-18   4.26941838520696E-02
      2.30000000000000E-01
      0.00000000000000E+00   0.00000000000000E+00   0.00000000000000E+00   0.00000000000000E+00   5.09509470691249E+01
      4.56749893094435E-15   5.09509470691249E+01   1.79860790456374E-19   1.61000000000000E-01   1.61000000000000E-01
      0.00000000000000E+00   0.00000000000000E+00  -5.09509468980629E+01  -1.71069043765869E-07  -5.09509470691319E+01
      4.07217371268923E-20   9.57305816147930E-01   1.05825684001723E-18   4.26941838520696E-02   9.57305816147930E-01
      1.05825684001723E-18   4.26941838520696E-02   9.57305816147930E-01   1.05825684001723E-18   4.26941838520696E-02
      2.40000000000000E-01
      0.00000000000000E+00   0.00000000000000E+00   0.00000000000000E+00   0.00000000000000E+00   5.09504195482614E+01
      1.60303886572753E-14   5.09504195482614E+01   3.07929105365426E-19   1.68000000000000E-01   1.68000000000000E-01
      0.00000000000000E+00   0.00000000000000E+00  -5.09504196905580E+01   1.42018151503548E-07  -5.09504195485398E+01
      4.81538412413061E-20   9.57305816147930E-01   1.05825684001723E-18   4.26941838520696E-02   9.57305816147930E-01
      1.05825684001723E-18   4.26941838520696E-02   9.57305816147930E-01   1.05825684001723E-18   4.26941838520696E-02
      2.50000000000000E-01
      0.00000000000000E+00   0.00000000000000E+00   0.00000000000000E+00   0.00000000000000E+00   5.09498890041851E+01
      2.07091665151334E-14   5.09498890041851E+01  -1.35655254525850E-19   1.75000000000000E-01   1.75000000000000E-01
      0.00000000000000E+00   0.00000000000000E+00  -5.09498892281271E+01   2.23993858311196E-07  -5.09498890041332E+01
     -2.81800614338190E-20   9.57305816147930E-01   1.05825684001723E-18   4.26941838520696E-02   9.57305816147930E-01
      1.05825684001723E-18   4.26941838520696E-02   9.57305816147930E-01   1.05825684001723E-18   4.26941838520696E-02
      2.60000000000000E-01
      0.00000000000000E+00   0.00000000000000E+00   0.00000000000000E+00   0.00000000000000E+00   5.09493553917143E+01
     -9.82872440436430E-15   5.09493553917143E+01   4.55409921385825E-19   1.82000000000000E-01   1.82000000000000E-01
      0.00000000000000E+00   0.00000000000000E+00  -5.09493552837651E+01  -1.08012020302557E-07  -5.09493553917771E+01
      2.25285655968169E-20   9.57305816147930E-01   1.05825684001723E-18   4.26941838520696E-02   9.57305816147930E-01
      1.05825684001723E-18   4.26941838520696E-02   9.57305816147930E-01   1.05825684001723E-18   4.26941838520696E-02
      2.70000000000000E-01
      0.00000000000000E+00   0.00000000000000E+00   0.00000000000000E+00   0.00000000000000E+00   5.09488186637962E+01
      2.38379502203871E-15   5.09488186637962E+01   3.07387181107084E-19   1.89000000000000E-01   1.89000000000000E-01
      0.00000000000000E+00   0.00000000000000E+00  -5.09488185776756E+01  -8.58135185217081E-08  -5.09488186634891E+01
      2.18318058360906E-20   9.57305816147930E-01   1.05825684001723E-18   4.26941838520696E-02   9.57305816147930E-01
      1.05825684001723E-18   4.26941838520696E-02   9.57305816147930E-01   1.05825684001723E-18   4.26941838520696E-02
      2.80000000000000E-01
      0.00000000000000E+00   0.00000000000000E+00   0.00000000000000E+00   0.00000000000000E+00   5.09482787716203E+01
      1.91360727558995E-14   5.09482787716203E+01  -6.40399637858657E-19   1.96000000000000E-01   1.96000000000000E-01
      0.00000000000000E+00   0.00000000000000E+00  -5.09482788649205E+01   9.34839821854213E-08  -5.09482787714365E+01
     -2.86445679409699E-20   9.57305816147930E-01   1.05825684001723E-18   4.26941838520696E-02   9.57305816147930E-01
      1.05825684001723E-18   4.26941838520696E-02   9.57305816147930E-01   1.05825684001723E-18   4.26941838520696E-02
      2.90000000000000E-01
      0.00000000000000E+00   0.00000000000000E+00   0.00000000000000E+00   0.00000000000000E+00   5.09477356647199E+01
     -1.55140755319266E-14   5.09477356647199E+01   5.01279938966973E-20   2.03000000000000E-01   2.03000000000000E-01
      0.00000000000000E+00   0.00000000000000E+00  -5.09477352287875E+01  -4.35719303269798E-07  -5.09477356645068E+01