DF-ISE text

Info {
  version   = 1.0
  type      = xyplot
  datasets  = [
    "time"
    "back OuterVoltage" "back InnerVoltage" "back QuasiFermiPotential" "back DisplacementCurrent" "back eCurrent"
    "back hCurrent" "back TotalCurrent" "back Charge" "front OuterVoltage" "front InnerVoltage"
    "front QuasiFermiPotential" "front DisplacementCurrent" "front eCurrent" "front hCurrent" "front TotalCurrent"
    "front Charge" "Stripe0 R_TE" "Stripe0 T_TE" "Stripe0 A_TE" "Stripe0 R_TM"
    "Stripe0 T_TM" "Stripe0 A_TM" "Stripe0 R_Total" "Stripe0 T_Total" "Stripe0 A_Total" ]
  functions = [
    Time
    OuterVoltage InnerVoltage QuasiFermiPotential DisplacementCurrent eCurrent
    hCurrent TotalCurrent Charge OuterVoltage InnerVoltage
    QuasiFermiPotential DisplacementCurrent eCurrent hCurrent TotalCurrent
    Charge R_TE T_TE A_TE R_TM
    T_TM A_TM R_Total T_Total A_Total ]
}

Data {
      0.00000000000000E+00
      0.00000000000000E+00   0.00000000000000E+00   0.00000000000000E+00   0.00000000000000E+00   3.07146423735025E+02
     -3.07146423735026E+02  -7.18908699942045E-13   5.99600482980572E-20   0.00000000000000E+00   0.00000000000000E+00
      0.00000000000000E+00   0.00000000000000E+00   4.89996875500841E+02  -4.89996875500840E+02   3.31804015357867E-13
      5.45020968390346E-20   9.57305816147930E-01   1.05825684001723E-18   4.26941838520696E-02   9.57305816147930E-01
      1.05825684001723E-18   4.26941838520696E-02   9.57305816147930E-01   1.05825684001723E-18   4.26941838520696E-02
      2.50000000000000E-07
      0.00000000000000E+00   0.00000000000000E+00   0.00000000000000E+00  -6.97424930342018E+01   5.79371051095660E+02
      9.24558063627390E-14   5.09628558061458E+02  -5.06331447232239E-19   0.00000000000000E+00   0.00000000000000E+00
      0.00000000000000E+00  -1.26119056139927E+02  -5.79370941501069E+02   1.99600852988717E-13  -7.05489997640996E+02
      3.42186460267802E-20   9.57305816147930E-01   1.05825684001723E-18   4.26941838520696E-02   9.57305816147930E-01
      1.05825684001723E-18   4.26941838520696E-02   9.57305816147930E-01   1.05825684001723E-18   4.26941838520696E-02
      7.50000000000000E-07
      0.00000000000000E+00   0.00000000000000E+00   0.00000000000000E+00  -2.27393794819972E+00   5.11934322561497E+02
      2.10617783186146E-14   5.09660384613298E+02  -1.15623411404969E-19   0.00000000000000E+00   0.00000000000000E+00
      0.00000000000000E+00  -5.79768247347983E+00  -5.11934311611450E+02   3.54269912231056E-14  -5.17731994084930E+02
     -2.44640093766121E-20   9.57305816147930E-01   1.05825684001723E-18   4.26941838520696E-02   9.57305816147930E-01
      1.05825684001723E-18   4.26941838520696E-02   9.57305816147930E-01   1.05825684001723E-18   4.26941838520696E-02
      1.75000000000000E-06
      0.00000000000000E+00   0.00000000000000E+00   0.00000000000000E+00  -3.75044698989215E-02   5.09698235580107E+02
      1.14489666757597E-13   5.09660731110209E+02   3.71392306904913E-19   0.00000000000000E+00   0.00000000000000E+00
      0.00000000000000E+00  -9.83993743213020E-02  -5.09698234503419E+02  -5.14123409213362E-13  -5.09796633877741E+02
      5.35730838247329E-20   9.57305816147930E-01   1.05825684001723E-18   4.26941838520696E-02   9.57305816147930E-01
      1.05825684001723E-18   4.26941838520696E-02   9.57305816147930E-01   1.05825684001723E-18   4.26941838520696E-02
      3.75000000000000E-06
      0.00000000000000E+00   0.00000000000000E+00   0.00000000000000E+00  -3.37859619360735E-04   5.09661075436549E+02
      6.44814443908355E-14   5.09660737576929E+02   7.62564849239333E-20   0.00000000000000E+00   0.00000000000000E+00
      0.00000000000000E+00  -8.89608716782343E-04  -5.09661075744888E+02  -8.51111862311195E-13  -5.09661965353605E+02
     -8.05144612394829E-21   9.57305816147930E-01   1.05825684001723E-18   4.26941838520696E-02   9.57305816147930E-01
      1.05825684001723E-18   4.26941838520696E-02   9.57305816147930E-01   1.05825684001723E-18   4.26941838520696E-02
      7.75000000000000E-06
      0.00000000000000E+00   0.00000000000000E+00   0.00000000000000E+00  -1.70375566376130E-06   5.09660739339687E+02
      9.19157607648258E-14   5.09660737635932E+02   3.55386186846006E-19   0.00000000000000E+00   0.00000000000000E+00
      0.00000000000000E+00  -4.06111060071640E-06  -5.09660739163063E+02   8.12228579261445E-13  -5.09660743224173E+02
      1.58706389943212E-20   9.57305816147930E-01   1.05825684001723E-18   4.26941838520696E-02   9.57305816147930E-01
      1.05825684001723E-18   4.26941838520696E-02   9.57305816147930E-01   1.05825684001723E-18   4.26941838520696E-02
      1.57500000000000E-05
      0.00000000000000E+00   0.00000000000000E+00   0.00000000000000E+00  -1.40077590562292E-06   5.09660739036979E+02
      3.20787085160438E-14   5.09660737636203E+02   1.54564540254450E-19   0.00000000000000E+00   0.00000000000000E+00
      0.00000000000000E+00   5.09638801442454E-07  -5.09660738131617E+02  -6.99899094895500E-14  -5.09660737621978E+02
     -4.87731832508406E-21   9.57305816147930E-01   1.05825684001723E-18   4.26941838520696E-02   9.57305816147930E-01
      1.05825684001723E-18   4.26941838520696E-02   9.57305816147930E-01   1.05825684001723E-18   4.26941838520696E-02
      3.17500000000000E-05
      0.00000000000000E+00   0.00000000000000E+00   0.00000000000000E+00   3.64171165252011E-07   5.09660737272030E+02
      7.39862469141077E-14   5.09660737636202E+02  -1.42258988702511E-18   0.00000000000000E+00   0.00000000000000E+00
      0.00000000000000E+00   1.75697304617651E-07  -5.09660737812340E+02  -3.12794410311322E-13  -5.09660737636643E+02
      2.50059336349548E-20   9.57305816147930E-01   1.05825684001723E-18   4.26941838520696E-02   9.57305816147930E-01
      1.05825684001723E-18   4.26941838520696E-02   9.57305816147930E-01   1.05825684001723E-18   4.26941838520696E-02
      6.37500000000000E-05
      0.00000000000000E+00   0.00000000000000E+00   0.00000000000000E+00   3.54600389030352E-07   5.09660737281601E+02
      4.55798484638736E-14   5.09660737636201E+02  -4.47126222008302E-19   0.00000000000000E+00   0.00000000000000E+00
      0.00000000000000E+00   7.12582303382555E-08  -5.09660737707263E+02  -7.28413502465317E-13  -5.09660737636006E+02
      3.75476093280281E-20   9.57305816147930E-01   1.05825684001723E-18   4.26941838520696E-02   9.57305816147930E-01
      1.05825684001723E-18   4.26941838520696E-02   9.57305816147930E-01   1.05825684001723E-18   4.26941838520696E-02
      1.27750000000000E-04
      0.00000000000000E+00   0.00000000000000E+00   0.00000000000000E+00   4.20221490350354E-07   5.09660737215980E+02
      7.87386481757438E-14   5.09660737636201E+02  -9.26419519636800E-19   0.00000000000000E+00   0.00000000000000E+00
      0.00000000000000E+00   1.01145808825631E-07  -5.09660737737309E+02   1.46892402632389E-14  -5.09660737636164E+02
      4.62183974615109E-20   9.57305816147930E-01   1.05825684001723E-18   4.26941838520696E-02   9.57305816147930E-01
      1.05825684001723E-18   4.26941838520696E-02   9.57305816147930E-01   1.05825684001723E-18   4.26941838520696E-02
      2.55750000000000E-04
      0.00000000000000E+00   0.00000000000000E+00   0.00000000000000E+00   3.54601273841060E-07   5.09660737281599E+02
      6.61015811845751E-14   5.09660737636201E+02  -1.91879896328902E-19   0.00000000000000E+00   0.00000000000000E+00
      0.00000000000000E+00   1.32107326309381E-07  -5.09660737767356E+02  -1.20970213932556E-14  -5.09660737635248E+02
      3.58444188018083E-20   9.57305816147930E-01   1.05825684001723E-18   4.26941838520696E-02   9.57305816147930E-01
      1.05825684001723E-18   4.26941838520696E-02   9.57305816147930E-01   1.05825684001723E-18   4.26941838520696E-02
      5.11750000000000E-04
      0.00000000000000E+00   0.00000000000000E+00   0.00000000000000E+00   3.88776976821582E-07   5.09660737247424E+02
      3.38068544293660E-14   5.09660737636201E+02  -6.83095527640940E-19   0.00000000000000E+00   0.00000000000000E+00
      0.00000000000000E+00   1.00332557183989E-07  -5.09660737737310E+02   4.63143104770356E-13  -5.09660737636977E+02
      6.04632636808040E-20   9.57305816147930E-01   1.05825684001723E-18   4.26941838520696E-02   9.57305816147930E-01
      1.05825684001723E-18   4.26941838520696E-02   9.57305816147930E-01   1.05825684001723E-18   4.26941838520696E-02
      1.02375000000000E-03
      0.00000000000000E+00   0.00000000000000E+00   0.00000000000000E+00   4.54397193330876E-07   5.09660737181803E+02
      5.73528424983813E-14   5.09660737636201E+02   5.63988317432340E-20   0.00000000000000E+00   0.00000000000000E+00
      0.00000000000000E+00   1.01205091143041E-07  -5.09660737737309E+02   1.68494226548917E-13  -5.09660737636104E+02
      5.58181986092954E-20   9.57305816147930E-01   1.05825684001723E-18   4.26941838520696E-02   9.57305816147930E-01
      1.05825684001723E-18   4.26941838520696E-02   9.57305816147930E-01   1.05825684001723E-18   4.26941838520696E-02
      2.04775000000000E-03
      0.00000000000000E+00   0.00000000000000E+00   0.00000000000000E+00   3.54598398206260E-07   5.09660737281602E+02
      8.96475692535903E-14   5.09660737636200E+02  -4.25991175932937E-19   0.00000000000000E+00   0.00000000000000E+00
      0.00000000000000E+00   1.00675863738546E-07  -5.09660737737309E+02  -3.32668088314528E-13  -5.09660737636634E+02
      6.80502032976014E-20   9.57305816147930E-01   1.05825684001723E-18   4.26941838520696E-02   9.57305816147930E-01
      1.05825684001723E-18   4.26941838520696E-02   9.57305816147930E-01   1.05825684001723E-18   4.26941838520696E-02
      4.09575000000000E-03
      0.00000000000000E+00   0.00000000000000E+00   0.00000000000000E+00   3.88776645017566E-07   5.09660737247424E+02
      7.49583289903514E-14   5.09660737636201E+02  -6.80618159602802E-19   0.00000000000000E+00   0.00000000000000E+00
      0.00000000000000E+00   1.00648877011963E-07  -5.09660737737310E+02  -4.42405353810489E-13  -5.09660737636661E+02
      4.59087264567436E-20   9.57305816147930E-01   1.05825684001723E-18   4.26941838520696E-02   9.57305816147930E-01
      1.05825684001723E-18   4.26941838520696E-02   9.57305816147930E-01   1.05825684001723E-18   4.26941838520696E-02
      8.19175000000000E-03
      0.00000000000000E+00   0.00000000000000E+00   0.00000000000000E+00   3.88776976821582E-07   5.09660737247424E+02
      4.90361402905181E-14   5.09660737636201E+02  -1.19583329378430E-18   0.00000000000000E+00   0.00000000000000E+00
      0.00000000000000E+00   1.01023594346641E-07  -5.09660737737310E+02  -4.31172405373895E-13  -5.09660737636287E+02
      6.80502032976014E-20   9.57305816147930E-01   1.05825684001723E-18   4.26941838520696E-02   9.57305816147930E-01
      1.05825684001723E-18   4.26941838520696E-02   9.57305816147930E-01   1.05825684001723E-18   4.26941838520696E-02
      1.63837500000000E-02
      0.00000000000000E+00   0.00000000000000E+00   0.00000000000000E+00   3.88776313213551E-07   5.09660737247425E+02
      4.92521585296834E-14   5.09660737636201E+02  -6.83018109889748E-19   0.00000000000000E+00   0.00000000000000E+00
      0.00000000000000E+00   1.00972385926937E-07  -5.09660737737310E+02  -8.03587849694834E-14  -5.09660737636338E+02
      6.61921772689980E-20   9.57305816147930E-01   1.05825684001723E-18   4.26941838520696E-02   9.57305816147930E-01
      1.05825684001723E-18   4.26941838520696E-02   9.57305816147930E-01   1.05825684001723E-18   4.26941838520696E-02
      3.27677500000000E-02
      0.00000000000000E+00   0.00000000000000E+00   0.00000000000000E+00   4.54398741749615E-07   5.09660737181802E+02
      2.79743619719035E-14   5.09660737636201E+02  -1.93815340108698E-19   0.00000000000000E+00   0.00000000000000E+00
      0.00000000000000E+00   1.01290475376327E-07  -5.09660737737311E+02  -3.85376538670856E-13  -5.09660737636020E+02
      5.70568826283643E-20   9.57305816147930E-01   1.05825684001723E-18   4.26941838520696E-02   9.57305816147930E-01
      1.05825684001723E-18   4.26941838520696E-02   9.57305816147930E-01   1.05825684001723E-18   4.26941838520696E-02
      6.55357500000000E-02
      0.00000000000000E+00   0.00000000000000E+00   0.00000000000000E+00   3.54598840611614E-07   5.09660737281601E+02
      8.68393321444417E-14   5.09660737636200E+02  -4.43332752199903E-19   0.00000000000000E+00   0.00000000000000E+00
      0.00000000000000E+00   1.00799073629582E-07  -5.09660737737310E+02  -6.40278060885884E-13  -5.09660737636512E+02
      4.46700424376747E-20   9.57305816147930E-01   1.05825684001723E-18   4.26941838520696E-02   9.57305816147930E-01
      1.05825684001723E-18   4.26941838520696E-02   9.57305816147930E-01   1.05825684001723E-18   4.26941838520696E-02
      1.00000000000000E-01
      0.00000000000000E+00   0.00000000000000E+00   0.00000000000000E+00   3.54599172415629E-07   5.09660737281601E+02
      3.67231006580972E-14   5.09660737636201E+02  -6.78063373813472E-19   0.00000000000000E+00   0.00000000000000E+00
      0.00000000000000E+00   1.16399392418324E-07  -5.09660737752333E+02  -1.97872707075395E-13  -5.09660737635933E+02
      5.76762246378988E-20   9.57305816147930E-01   1.05825684001723E-18   4.26941838520696E-02   9.57305816147930E-01
      1.05825684001723E-18   4.26941838520696E-02   9.57305816147930E-01   1.05825684001723E-18   4.26941838520696E-02
      1.00000000000000E-02
      0.00000000000000E+00   0.00000000000000E+00   0.00000000000000E+00   0.00000000000000E+00   5.09655625916830E+02
      7.36672824828402E-14   5.09655625916830E+02   1.06135865996413E-18   8.00000000000000E-03   8.00000000000000E-03
      0.00000000000000E+00   0.00000000000000E+00  -5.09655625908758E+02  -9.34334627896444E-09  -5.09655625918102E+02
      2.87994034433535E-20   9.57305816147930E-01   1.05825684001723E-18   4.26941838520696E-02   9.57305816147930E-01
      1.05825684001723E-18   4.26941838520696E-02   9.57305816147930E-01   1.05825684001723E-18   4.26941838520696E-02
      2.00000000000000E-02
      0.00000000000000E+00   0.00000000000000E+00   0.00000000000000E+00   0.00000000000000E+00   5.09650486014955E+02
     -1.69095027276595E-13   5.09650486014955E+02  -1.05506846767979E-18   1.60000000000000E-02   1.60000000000000E-02
      0.00000000000000E+00   0.00000000000000E+00  -5.09650486091239E+02   7.74032217470827E-08  -5.09650486013836E+02
      1.09933206692371E-20   9.57305816147930E-01   1.05825684001723E-18   4.26941838520696E-02   9.57305816147930E-01
      1.05825684001723E-18   4.26941838520696E-02   9.57305816147930E-01   1.05825684001723E-18   4.26941838520696E-02
      3.00000000000000E-02
      0.00000000000000E+00   0.00000000000000E+00   0.00000000000000E+00   0.00000000000000E+00   5.09645317629946E+02
      2.35122352191457E-14   5.09645317629946E+02  -8.65143369568482E-20   2.40000000000000E-02   2.40000000000000E-02
      0.00000000000000E+00   0.00000000000000E+00  -5.09645317578670E+02  -5.16578394936277E-08  -5.09645317630328E+02
      3.87088755959053E-21   9.57305816147930E-01   1.05825684001723E-18   4.26941838520696E-02   9.57305816147930E-01
      1.05825684001723E-18   4.26941838520696E-02   9.57305816147930E-01   1.05825684001723E-18   4.26941838520696E-02
      4.00000000000000E-02
      0.00000000000000E+00   0.00000000000000E+00   0.00000000000000E+00   0.00000000000000E+00   5.09640120455265E+02
     -7.91504329441526E-16   5.09640120455265E+02  -6.68831306983849E-19   3.20000000000000E-02   3.20000000000000E-02
      0.00000000000000E+00   0.00000000000000E+00  -5.09640120371905E+02  -8.27507642205448E-08  -5.09640120454655E+02
     -6.27083784653665E-20   9.57305816147930E-01   1.05825684001723E-18   4.26941838520696E-02   9.57305816147930E-01
      1.05825684001723E-18   4.26941838520696E-02   9.57305816147930E-01   1.05825684001723E-18   4.26941838520696E-02
      5.00000000000000E-02
      0.00000000000000E+00   0.00000000000000E+00   0.00000000000000E+00   0.00000000000000E+00   5.09634894177524E+02
     -9.65601529068792E-14   5.09634894177524E+02   2.19750286757954E-19   4.00000000000000E-02   4.00000000000000E-02
      0.00000000000000E+00   0.00000000000000E+00  -5.09634894285458E+02   1.07597807192115E-07  -5.09634894177860E+02
      4.56764732031682E-21   9.57305816147930E-01   1.05825684001723E-18   4.26941838520696E-02   9.57305816147930E-01
      1.05825684001723E-18   4.26941838520696E-02   9.57305816147930E-01   1.05825684001723E-18   4.26941838520696E-02
      6.00000000000000E-02
      0.00000000000000E+00   0.00000000000000E+00   0.00000000000000E+00   0.00000000000000E+00   5.09629638475550E+02
      6.78280394554038E-14   5.09629638475550E+02  -8.89355771253721E-19   4.80000000000000E-02   4.80000000000000E-02
      0.00000000000000E+00   0.00000000000000E+00  -5.09629638308207E+02  -1.68251212888435E-07  -5.09629638476458E+02
      4.19604211459613E-20   9.57305816147930E-01   1.05825684001723E-18   4.26941838520696E-02   9.57305816147930E-01
      1.05825684001723E-18   4.26941838520696E-02   9.57305816147930E-01   1.05825684001723E-18   4.26941838520696E-02
      7.00000000000000E-02
      0.00000000000000E+00   0.00000000000000E+00   0.00000000000000E+00   0.00000000000000E+00   5.09624353019569E+02
      6.62543128302349E-14   5.09624353019570E+02  -4.19759046961997E-19   5.60000000000000E-02   5.60000000000000E-02
      0.00000000000000E+00   0.00000000000000E+00  -5.09624352970710E+02  -4.89646525645627E-08  -5.09624353019675E+02
     -4.94699430115669E-20   9.57305816147930E-01   1.05825684001723E-18   4.26941838520696E-02   9.57305816147930E-01
      1.05825684001723E-18   4.26941838520696E-02   9.57305816147930E-01   1.05825684001723E-18   4.26941838520696E-02
      8.00000000000000E-02
      0.00000000000000E+00   0.00000000000000E+00   0.00000000000000E+00   0.00000000000000E+00   5.09619037470503E+02
      1.97482017838154E-13   5.09619037470503E+02   1.49822702993951E-19   6.40000000000000E-02   6.40000000000000E-02
      0.00000000000000E+00   0.00000000000000E+00  -5.09619037465888E+02  -4.59765162759057E-09  -5.09619037470486E+02
      3.37541395196294E-20   9.57305816147930E-01   1.05825684001723E-18   4.26941838520696E-02   9.57305816147930E-01
      1.05825684001723E-18   4.26941838520696E-02   9.57305816147930E-01   1.05825684001723E-18   4.26941838520696E-02
      9.00000000000000E-02
      0.00000000000000E+00   0.00000000000000E+00   0.00000000000000E+00   0.00000000000000E+00   5.09613691479453E+02
      1.85495537028222E-13   5.09613691479453E+02  -8.63982103300605E-20   7.20000000000000E-02   7.20000000000000E-02
      0.00000000000000E+00   0.00000000000000E+00  -5.09613691448740E+02  -3.09243815182325E-08  -5.09613691479665E+02
      4.57538909543600E-20   9.57305816147930E-01   1.05825684001723E-18   4.26941838520696E-02   9.57305816147930E-01
      1.05825684001723E-18   4.26941838520696E-02   9.57305816147930E-01   1.05825684001723E-18   4.26941838520696E-02
      1.00000000000000E-01
      0.00000000000000E+00   0.00000000000000E+00   0.00000000000000E+00   0.00000000000000E+00   5.09608314687375E+02
      2.49344115484002E-13   5.09608314687375E+02   2.56020503191317E-19   8.00000000000000E-02   8.00000000000000E-02
      0.00000000000000E+00   0.00000000000000E+00  -5.09608314734114E+02   4.65495752932558E-08  -5.09608314687564E+02
      2.00511975586789E-20   9.57305816147930E-01   1.05825684001723E-18   4.26941838520696E-02   9.57305816147930E-01
      1.05825684001723E-18   4.26941838520696E-02   9.57305816147930E-01   1.05825684001723E-18   4.26941838520696E-02
      1.10000000000000E-01
      0.00000000000000E+00   0.00000000000000E+00   0.00000000000000E+00   0.00000000000000E+00   5.09602906724986E+02
      1.94548051363241E-13   5.09602906724987E+02   9.08613436862684E-19   8.80000000000000E-02   8.80000000000000E-02
      0.00000000000000E+00   0.00000000000000E+00  -5.09602907003715E+02   2.78760698495605E-07  -5.09602906724954E+02
     -1.60254744967048E-20   9.57305816147930E-01   1.05825684001723E-18   4.26941838520696E-02   9.57305816147930E-01
      1.05825684001723E-18   4.26941838520696E-02   9.57305816147930E-01   1.05825684001723E-18   4.26941838520696E-02
      1.20000000000000E-01
      0.00000000000000E+00   0.00000000000000E+00   0.00000000000000E+00   0.00000000000000E+00   5.09597467212887E+02
      1.20494298749395E-13   5.09597467212888E+02  -5.99600482980572E-19   9.60000000000000E-02   9.60000000000000E-02
      0.00000000000000E+00   0.00000000000000E+00  -5.09597467525912E+02   3.13512171036337E-07  -5.09597467212400E+02
     -5.27214885616230E-20   9.57305816147930E-01   1.05825684001723E-18   4.26941838520696E-02   9.57305816147930E-01
      1.05825684001723E-18   4.26941838520696E-02   9.57305816147930E-01   1.05825684001723E-18   4.26941838520696E-02
      1.30000000000000E-01
      0.00000000000000E+00   0.00000000000000E+00   0.00000000000000E+00   0.00000000000000E+00   5.09591995761858E+02
     -1.00924396395015E-13   5.09591995761858E+02  -8.99265243406273E-19   1.04000000000000E-01   1.04000000000000E-01
      0.00000000000000E+00   0.00000000000000E+00  -5.09591995882503E+02   1.22084022605265E-07  -5.09591995760419E+02
     -6.58050885130389E-21   9.57305816147930E-01   1.05825684001723E-18   4.26941838520696E-02   9.57305816147930E-01
      1.05825684001723E-18   4.26941838520696E-02   9.57305816147930E-01   1.05825684001723E-18   4.26941838520696E-02
      1.40000000000000E-01
      0.00000000000000E+00   0.00000000000000E+00   0.00000000000000E+00   0.00000000000000E+00   5.09586491973370E+02
      1.11316898869857E-13   5.09586491973370E+02   9.43064336143040E-19   1.12000000000000E-01   1.12000000000000E-01
      0.00000000000000E+00   0.00000000000000E+00  -5.09586492274691E+02   3.01601226242171E-07  -5.09586491973090E+02
      1.08384851668535E-21   9.57305816147930E-01   1.05825684001723E-18   4.26941838520696E-02   9.57305816147930E-01
      1.05825684001723E-18   4.26941838520696E-02   9.57305816147930E-01   1.05825684001723E-18   4.26941838520696E-02
      1.50000000000000E-01
      0.00000000000000E+00   0.00000000000000E+00   0.00000000000000E+00   0.00000000000000E+00   5.09580955440184E+02
      2.06196159853232E-14   5.09580955440184E+02   1.23067128182062E-18   1.20000000000000E-01   1.20000000000000E-01
      0.00000000000000E+00   0.00000000000000E+00  -5.09580955709663E+02   2.70224000288720E-07  -5.09580955439440E+02
      3.94830531078234E-21   9.57305816147930E-01   1.05825684001723E-18   4.26941838520696E-02   9.57305816147930E-01
      1.05825684001723E-18   4.26941838520696E-02   9.57305816147930E-01   1.05825684001723E-18   4.26941838520696E-02
      1.60000000000000E-01
      0.00000000000000E+00   0.00000000000000E+00   0.00000000000000E+00   0.00000000000000E+00   5.09575385747064E+02
     -1.32743207967063E-13   5.09575385747064E+02  -7.93319050900280E-19   1.28000000000000E-01   1.28000000000000E-01
      0.00000000000000E+00   0.00000000000000E+00  -5.09575385838575E+02   9.16866824409525E-08  -5.09575385746888E+02
      2.39995028694613E-21   9.57305816147930E-01   1.05825684001723E-18   4.26941838520696E-02   9.57305816147930E-01
      1.05825684001723E-18   4.26941838520696E-02   9.57305816147930E-01   1.05825684001723E-18   4.26941838520696E-02
      1.70000000000000E-01
      0.00000000000000E+00   0.00000000000000E+00   0.00000000000000E+00   0.00000000000000E+00   5.09569782471472E+02
      3.78065671389106E-14   5.09569782471472E+02   2.60704277138422E-19   1.36000000000000E-01   1.36000000000000E-01
      0.00000000000000E+00   0.00000000000000E+00  -5.09569782617019E+02   1.47339563303707E-07  -5.09569782469679E+02
     -8.82562363586640E-21   9.57305816147930E-01   1.05825684001723E-18   4.26941838520696E-02   9.57305816147930E-01
      1.05825684001723E-18   4.26941838520696E-02   9.57305816147930E-01   1.05825684001723E-18   4.26941838520696E-02
      1.80000000000000E-01
      0.00000000000000E+00   0.00000000000000E+00   0.00000000000000E+00   0.00000000000000E+00   5.09564145184235E+02
      8.47939094423455E-14   5.09564145184235E+02   3.79501816342255E-19   1.44000000000000E-01   1.44000000000000E-01
      0.00000000000000E+00   0.00000000000000E+00  -5.09564145453576E+02   2.68396903386624E-07  -5.09564145185179E+02
     -3.70056850696854E-20   9.57305816147930E-01   1.05825684001723E-18   4.26941838520696E-02   9.57305816147930E-01
      1.05825684001723E-18   4.26941838520696E-02   9.57305816147930E-01   1.05825684001723E-18   4.26941838520696E-02
      1.90000000000000E-01
      0.00000000000000E+00   0.00000000000000E+00   0.00000000000000E+00   0.00000000000000E+00   5.09558473450074E+02
      1.22387833627078E-13   5.09558473450074E+02  -2.37982167163626E-19   1.52000000000000E-01   1.52000000000000E-01
      0.00000000000000E+00   0.00000000000000E+00  -5.09558473395976E+02  -5.41275409190404E-08  -5.09558473450103E+02
      2.92639099505044E-20   9.57305816147930E-01   1.05825684001723E-18   4.26941838520696E-02   9.57305816147930E-01
      1.05825684001723E-18   4.26941838520696E-02   9.57305816147930E-01   1.05825684001723E-18   4.26941838520696E-02
      2.00000000000000E-01
      0.00000000000000E+00   0.00000000000000E+00   0.00000000000000E+00   0.00000000000000E+00   5.09552766827926E+02
      2.70191563205945E-14   5.09552766827926E+02  -1.31261797145715E-19   1.60000000000000E-01   1.60000000000000E-01
      0.00000000000000E+00   0.00000000000000E+00  -5.09552766823389E+02  -4.84352450548600E-09  -5.09552766828233E+02
     -9.36754789420907E-21   9.57305816147930E-01   1.05825684001723E-18   4.26941838520696E-02   9.57305816147930E-01
      1.05825684001723E-18   4.26941838520696E-02   9.57305816147930E-01   1.05825684001723E-18   4.26941838520696E-02
      2.10000000000000E-01
      0.00000000000000E+00   0.00000000000000E+00   0.00000000000000E+00   0.00000000000000E+00   5.09547024871008E+02
     -1.47788540796426E-13   5.09547024871008E+02   1.37931336410889E-18   1.68000000000000E-01   1.68000000000000E-01
      0.00000000000000E+00   0.00000000000000E+00  -5.09547024637538E+02  -2.33259525116540E-07  -5.09547024870798E+02
     -1.78835005253082E-20   9.57305816147930E-01   1.05825684001723E-18   4.26941838520696E-02   9.57305816147930E-01
      1.05825684001723E-18   4.26941838520696E-02   9.57305816147930E-01   1.05825684001723E-18   4.26941838520696E-02
      2.20000000000000E-01
      0.00000000000000E+00   0.00000000000000E+00   0.00000000000000E+00   0.00000000000000E+00   5.09541247126562E+02
     -1.18995672215186E-14   5.09541247126562E+02  -4.03404547022727E-19   1.76000000000000E-01   1.76000000000000E-01
      0.00000000000000E+00   0.00000000000000E+00  -5.09541247051990E+02  -7.35460372236846E-08  -5.09541247125536E+02
      1.54835502383621E-22   9.57305816147930E-01   1.05825684001723E-18   4.26941838520696E-02   9.57305816147930E-01
      1.05825684001723E-18   4.26941838520696E-02   9.57305816147930E-01   1.05825684001723E-18   4.26941838520696E-02
      2.30000000000000E-01
      0.00000000000000E+00   0.00000000000000E+00   0.00000000000000E+00   0.00000000000000E+00   5.09535433135233E+02
      6.67293841921491E-15   5.09535433135233E+02  -5.82471805529384E-19   1.84000000000000E-01   1.84000000000000E-01
      0.00000000000000E+00   0.00000000000000E+00  -5.09535433103133E+02  -3.13596916989730E-08  -5.09535433134493E+02
      3.12767714814914E-20   9.57305816147930E-01   1.05825684001723E-18   4.26941838520696E-02   9.57305816147930E-01
      1.05825684001723E-18   4.26941838520696E-02   9.57305816147930E-01   1.05825684001723E-18   4.26941838520696E-02
      2.40000000000000E-01
      0.00000000000000E+00   0.00000000000000E+00   0.00000000000000E+00   0.00000000000000E+00   5.09529582430102E+02
      1.22318640284845E-13   5.09529582430102E+02  -6.09858335013487E-20   1.92000000000000E-01   1.92000000000000E-01
      0.00000000000000E+00   0.00000000000000E+00  -5.09529582401431E+02  -2.91112554877458E-08  -5.09529582430543E+02
     -1.98963620562953E-20   9.57305816147930E-01   1.05825684001723E-18   4.26941838520696E-02   9.57305816147930E-01
      1.05825684001723E-18   4.26941838520696E-02   9.57305816147930E-01   1.05825684001723E-18   4.26941838520696E-02
      2.50000000000000E-01
      0.00000000000000E+00   0.00000000000000E+00   0.00000000000000E+00   0.00000000000000E+00   5.09523694535370E+02
      8.07688820953987E-14   5.09523694535370E+02  -1.09654502788080E-18   2.00000000000000E-01   2.00000000000000E-01
      0.00000000000000E+00   0.00000000000000E+00  -5.09523694574855E+02   3.96288184818789E-08  -5.09523694535227E+02
      1.13029916740043E-20   9.57305816147930E-01   1.05825684001723E-18   4.26941838520696E-02   9.57305816147930E-01
      1.05825684001723E-18   4.26941838520696E-02   9.57305816147930E-01   1.05825684001723E-18   4.26941838520696E-02
      2.60000000000000E-01
      0.00000000000000E+00   0.00000000000000E+00   0.00000000000000E+00   0.00000000000000E+00   5.09517768964753E+02
     -5.94893978951254E-14   5.09517768964753E+02   1.37822951559221E-19   2.08000000000000E-01   2.08000000000000E-01
      0.00000000000000E+00   0.00000000000000E+00  -5.09517768791198E+02  -1.74106453524605E-07  -5.09517768965305E+02
      4.80764234901143E-20   9.57305816147930E-01   1.05825684001723E-18   4.26941838520696E-02   9.57305816147930E-01
      1.05825684001723E-18   4.26941838520696E-02   9.57305816147930E-01   1.05825684001723E-18   4.26941838520696E-02
      2.70000000000000E-01
      0.00000000000000E+00   0.00000000000000E+00   0.00000000000000E+00   0.00000000000000E+00   5.09511805219673E+02
      1.27526705019721E-13   5.09511805219673E+02  -6.38367421889871E-19   2.16000000000000E-01   2.16000000000000E-01
      0.00000000000000E+00   0.00000000000000E+00  -5.09511804580022E+02  -6.40734912675457E-07  -5.09511805220757E+02