DF-ISE text

Info {
  version   = 1.0
  type      = xyplot
  datasets  = [
    "time"
    "back OuterVoltage" "back InnerVoltage" "back QuasiFermiPotential" "back DisplacementCurrent" "back eCurrent"
    "back hCurrent" "back TotalCurrent" "back Charge" "front OuterVoltage" "front InnerVoltage"
    "front QuasiFermiPotential" "front DisplacementCurrent" "front eCurrent" "front hCurrent" "front TotalCurrent"
    "front Charge" "Stripe0 R_TE" "Stripe0 T_TE" "Stripe0 A_TE" "Stripe0 R_TM"
    "Stripe0 T_TM" "Stripe0 A_TM" "Stripe0 R_Total" "Stripe0 T_Total" "Stripe0 A_Total" ]
  functions = [
    Time
    OuterVoltage InnerVoltage QuasiFermiPotential DisplacementCurrent eCurrent
    hCurrent TotalCurrent Charge OuterVoltage InnerVoltage
    QuasiFermiPotential DisplacementCurrent eCurrent hCurrent TotalCurrent
    Charge R_TE T_TE A_TE R_TM
    T_TM A_TM R_Total T_Total A_Total ]
}

Data {
      0.00000000000000E+00
      0.00000000000000E+00   0.00000000000000E+00   0.00000000000000E+00   0.00000000000000E+00   3.07146423735025E+03
     -3.07146423735025E+03   4.42405353810489E-13   5.99600482980572E-20   0.00000000000000E+00   0.00000000000000E+00
      0.00000000000000E+00   0.00000000000000E+00   4.89996875500842E+03  -4.89996875500843E+03  -1.06177284914517E-11
      5.45020968390346E-20   9.57305816147930E-01   1.05825684001723E-18   4.26941838520696E-02   9.57305816147930E-01
      1.05825684001723E-18   4.26941838520696E-02   9.57305816147930E-01   1.05825684001723E-18   4.26941838520696E-02
      1.00000000000000E-06
      0.00000000000000E+00   0.00000000000000E+00   0.00000000000000E+00  -1.87697369332502E+01   5.11561794411579E+03
      9.33198793194001E-14   5.09684820718254E+03   5.29266456022813E-19   0.00000000000000E+00   0.00000000000000E+00
      0.00000000000000E+00  -4.27337854401093E+01  -5.11561757830921E+03   2.30880294019849E-12  -5.15835136374932E+03
      3.03477584671897E-20   9.57305816147930E-01   1.05825684001723E-18   4.26941838520696E-02   9.57305816147930E-01
      1.05825684001723E-18   4.26941838520696E-02   9.57305816147930E-01   1.05825684001723E-18   4.26941838520696E-02
      3.00000000000000E-06
      0.00000000000000E+00   0.00000000000000E+00   0.00000000000000E+00  -1.43659200483054E-02   5.09690721491905E+03
      7.15452408115401E-13   5.09689284899900E+03  -3.62702164333632E-20   0.00000000000000E+00   0.00000000000000E+00
      0.00000000000000E+00  -4.37734385049404E-02  -5.09690721340635E+03   4.94249731210156E-12  -5.09695098684485E+03
     -3.56895832994246E-20   9.57305816147930E-01   1.05825684001723E-18   4.26941838520696E-02   9.57305816147930E-01
      1.05825684001723E-18   4.26941838520696E-02   9.57305816147930E-01   1.05825684001723E-18   4.26941838520696E-02
      7.00000000000000E-06
      0.00000000000000E+00   0.00000000000000E+00   0.00000000000000E+00  -1.47999491061925E-05   5.09689286398311E+03
      5.51278546349789E-13   5.09689284918316E+03   4.78480411240985E-19   0.00000000000000E+00   0.00000000000000E+00
      0.00000000000000E+00  -5.82655734631819E-05  -5.09689286353676E+03   3.02079905648725E-12  -5.09689292180233E+03
     -1.08384851668535E-20   9.57305816147930E-01   1.05825684001723E-18   4.26941838520696E-02   9.57305816147930E-01
      1.05825684001723E-18   4.26941838520696E-02   9.57305816147930E-01   1.05825684001723E-18   4.26941838520696E-02
      1.50000000000000E-05
      0.00000000000000E+00   0.00000000000000E+00   0.00000000000000E+00  -1.58842103042826E-07   5.09689284934389E+03
      6.22132528796000E-13   5.09689284918505E+03   1.62209543184641E-19   0.00000000000000E+00   0.00000000000000E+00
      0.00000000000000E+00  -1.29007170792554E-07  -5.09689284910089E+03   3.80926562944051E-12  -5.09689284922989E+03
      3.05025939695733E-20   9.57305816147930E-01   1.05825684001723E-18   4.26941838520696E-02   9.57305816147930E-01
      1.05825684001723E-18   4.26941838520696E-02   9.57305816147930E-01   1.05825684001723E-18   4.26941838520696E-02
      3.10000000000000E-05
      0.00000000000000E+00   0.00000000000000E+00   0.00000000000000E+00  -1.02749528233194E-07   5.09689284928782E+03
      4.13890946240673E-13   5.09689284918507E+03  -6.06180991831876E-20   0.00000000000000E+00   0.00000000000000E+00
      0.00000000000000E+00   1.81922390351119E-07  -5.09689284936204E+03   4.45861645637134E-12  -5.09689284918011E+03
     -7.50952186560562E-21   9.57305816147930E-01   1.05825684001723E-18   4.26941838520696E-02   9.57305816147930E-01
      1.05825684001723E-18   4.26941838520696E-02   9.57305816147930E-01   1.05825684001723E-18   4.26941838520696E-02
      6.30000000000000E-05
      0.00000000000000E+00   0.00000000000000E+00   0.00000000000000E+00  -1.58813789100182E-07   5.09689284934387E+03
      1.86639758638800E-13   5.09689284918506E+03   1.73899623614604E-19   0.00000000000000E+00   0.00000000000000E+00
      0.00000000000000E+00  -2.56577408995931E-08  -5.09689284915939E+03   1.66593266044262E-12  -5.09689284918505E+03
     -1.92770200467608E-20   9.57305816147930E-01   1.05825684001723E-18   4.26941838520696E-02   9.57305816147930E-01
      1.05825684001723E-18   4.26941838520696E-02   9.57305816147930E-01   1.05825684001723E-18   4.26941838520696E-02
      1.27000000000000E-04
      0.00000000000000E+00   0.00000000000000E+00   0.00000000000000E+00  -1.58788129589661E-07   5.09689284934385E+03
      9.62577273720478E-13   5.09689284918507E+03   4.23494453457001E-19   0.00000000000000E+00   0.00000000000000E+00
      0.00000000000000E+00   1.13899027959926E-07  -5.09689284930061E+03  -2.28115260558533E-12  -5.09689284918671E+03
     -2.90316566969289E-20   9.57305816147930E-01   1.05825684001723E-18   4.26941838520696E-02   9.57305816147930E-01
      1.05825684001723E-18   4.26941838520696E-02   9.57305816147930E-01   1.05825684001723E-18   4.26941838520696E-02
      2.55000000000000E-04
      0.00000000000000E+00   0.00000000000000E+00   0.00000000000000E+00  -1.58812019478767E-07   5.09689284934387E+03
      5.20171919909989E-13   5.09689284918506E+03   4.16062349342588E-19   0.00000000000000E+00   0.00000000000000E+00
      0.00000000000000E+00  -1.06056950658281E-07  -5.09689284907947E+03   2.80650896323529E-12  -5.09689284918553E+03
     -1.83480070324591E-20   9.57305816147930E-01   1.05825684001723E-18   4.26941838520696E-02   9.57305816147930E-01
      1.05825684001723E-18   4.26941838520696E-02   9.57305816147930E-01   1.05825684001723E-18   4.26941838520696E-02
      5.11000000000000E-04
      0.00000000000000E+00   0.00000000000000E+00   0.00000000000000E+00  -1.58785475157538E-07   5.09689284934385E+03
      3.81920246844211E-13   5.09689284918507E+03   3.87572616904001E-19   0.00000000000000E+00   0.00000000000000E+00
      0.00000000000000E+00  -3.36900525033764E-08  -5.09689284915519E+03  -2.59913145363662E-12  -5.09689284918888E+03
      7.97402837275648E-21   9.57305816147930E-01   1.05825684001723E-18   4.26941838520696E-02   9.57305816147930E-01
      1.05825684001723E-18   4.26941838520696E-02   9.57305816147930E-01   1.05825684001723E-18   4.26941838520696E-02
      1.02300000000000E-03
      0.00000000000000E+00   0.00000000000000E+00   0.00000000000000E+00  -1.58808480235936E-07   5.09689284934386E+03
      5.23628211736634E-13   5.09689284918505E+03   6.71231257270795E-19   0.00000000000000E+00   0.00000000000000E+00
      0.00000000000000E+00  -1.03403403346126E-07  -5.09689284908429E+03  -2.46087978057085E-12  -5.09689284918769E+03
      4.52893844472091E-20   9.57305816147930E-01   1.05825684001723E-18   4.26941838520696E-02   9.57305816147930E-01
      1.05825684001723E-18   4.26941838520696E-02   9.57305816147930E-01   1.05825684001723E-18   4.26941838520696E-02
      2.04700000000000E-03
      0.00000000000000E+00   0.00000000000000E+00   0.00000000000000E+00  -1.58806710614521E-07   5.09689284934387E+03
      4.71783834336967E-13   5.09689284918506E+03   1.71422255576466E-19   0.00000000000000E+00   0.00000000000000E+00
      0.00000000000000E+00  -6.92152024143587E-08  -5.09689284911433E+03   4.70746946788974E-12  -5.09689284918354E+03
     -1.58706389943212E-20   9.57305816147930E-01   1.05825684001723E-18   4.26941838520696E-02   9.57305816147930E-01
      1.05825684001723E-18   4.26941838520696E-02   9.57305816147930E-01   1.05825684001723E-18   4.26941838520696E-02
      4.09500000000000E-03
      0.00000000000000E+00   0.00000000000000E+00   0.00000000000000E+00  -1.58796092886029E-07   5.09689284934386E+03
      6.10035507402745E-13   5.09689284918506E+03  -3.37676876260879E-19   0.00000000000000E+00   0.00000000000000E+00
      0.00000000000000E+00  -1.93187800280549E-07  -5.09689284899414E+03   1.97699892484062E-12  -5.09689284918732E+03
      1.10707384204289E-20   9.57305816147930E-01   1.05825684001723E-18   4.26941838520696E-02   9.57305816147930E-01
      1.05825684001723E-18   4.26941838520696E-02   9.57305816147930E-01   1.05825684001723E-18   4.26941838520696E-02
      8.19100000000000E-03
      0.00000000000000E+00   0.00000000000000E+00   0.00000000000000E+00  -1.58802286560983E-07   5.09689284934386E+03
      2.93784805264778E-13   5.09689284918506E+03   1.79473701700415E-19   0.00000000000000E+00   0.00000000000000E+00
      0.00000000000000E+00   2.15805331588757E-09  -5.09689284918945E+03   3.98164818429440E-12  -5.09689284918729E+03
     -1.58706389943212E-20   9.57305816147930E-01   1.05825684001723E-18   4.26941838520696E-02   9.57305816147930E-01
      1.05825684001723E-18   4.26941838520696E-02   9.57305816147930E-01   1.05825684001723E-18   4.26941838520696E-02
      1.63830000000000E-02
      0.00000000000000E+00   0.00000000000000E+00   0.00000000000000E+00  -1.58803171371690E-07   5.09689284934387E+03
      6.92986511242212E-13   5.09689284918507E+03  -7.75532322563962E-20   0.00000000000000E+00   0.00000000000000E+00
      0.00000000000000E+00  -1.75116426388098E-07  -5.09689284900916E+03   1.47929290180382E-12  -5.09689284918428E+03
      1.02965609085108E-20   9.57305816147930E-01   1.05825684001723E-18   4.26941838520696E-02   9.57305816147930E-01
      1.05825684001723E-18   4.26941838520696E-02   9.57305816147930E-01   1.05825684001723E-18   4.26941838520696E-02
      3.27670000000000E-02
      0.00000000000000E+00   0.00000000000000E+00   0.00000000000000E+00  -1.58814673910889E-07   5.09689284934388E+03
      7.81121952821645E-13   5.09689284918506E+03   3.98101431066088E-19   0.00000000000000E+00   0.00000000000000E+00
      0.00000000000000E+00  -8.63389440389474E-08  -5.09689284909930E+03   2.95167321995436E-12  -5.09689284918564E+03
     -5.65149583700217E-21   9.57305816147930E-01   1.05825684001723E-18   4.26941838520696E-02   9.57305816147930E-01
      1.05825684001723E-18   4.26941838520696E-02   9.57305816147930E-01   1.05825684001723E-18   4.26941838520696E-02
      6.55350000000000E-02
      0.00000000000000E+00   0.00000000000000E+00   0.00000000000000E+00  -1.58804056182398E-07   5.09689284934386E+03
      3.40444744924478E-13   5.09689284918506E+03   1.60893441414380E-19   0.00000000000000E+00   0.00000000000000E+00
      0.00000000000000E+00  -8.54921801917542E-08  -5.09689284909929E+03   4.18211311023978E-12  -5.09689284918478E+03
      8.51595263109916E-22   9.57305816147930E-01   1.05825684001723E-18   4.26941838520696E-02   9.57305816147930E-01
      1.05825684001723E-18   4.26941838520696E-02   9.57305816147930E-01   1.05825684001723E-18   4.26941838520696E-02
      1.00000000000000E-01
      0.00000000000000E+00   0.00000000000000E+00   0.00000000000000E+00  -1.46493684807267E-07   5.09689284933155E+03
      4.64871250683678E-13   5.09689284918506E+03   1.83189753757622E-19   0.00000000000000E+00   0.00000000000000E+00
      0.00000000000000E+00  -1.32832207481599E-07  -5.09689284905424E+03   3.35951565549840E-12  -5.09689284918706E+03
     -2.18318058360906E-20   9.57305816147930E-01   1.05825684001723E-18   4.26941838520696E-02   9.57305816147930E-01
      1.05825684001723E-18   4.26941838520696E-02   9.57305816147930E-01   1.05825684001723E-18   4.26941838520696E-02
      1.00000000000000E-02
      0.00000000000000E+00   0.00000000000000E+00   0.00000000000000E+00   0.00000000000000E+00   5.09683650895005E+03
     -4.16091632052169E-13   5.09683650895005E+03  -5.07860447818277E-20   9.00000000000000E-03   9.00000000000000E-03
      0.00000000000000E+00   0.00000000000000E+00  -5.09683650888016E+03  -6.74540782925725E-08  -5.09683650894761E+03
      9.77786197552567E-20   9.57305816147930E-01   1.05825684001723E-18   4.26941838520696E-02   9.57305816147930E-01
      1.05825684001723E-18   4.26941838520696E-02   9.57305816147930E-01   1.05825684001723E-18   4.26941838520696E-02
      2.00000000000000E-02
      0.00000000000000E+00   0.00000000000000E+00   0.00000000000000E+00   0.00000000000000E+00   5.09677982516786E+03
      7.55415782360977E-13   5.09677982516786E+03  -6.56212213539584E-19   1.80000000000000E-02   1.80000000000000E-02
      0.00000000000000E+00   0.00000000000000E+00  -5.09677982518095E+03   1.09611577443685E-08  -5.09677982516999E+03
     -4.69925749734290E-20   9.57305816147930E-01   1.05825684001723E-18   4.26941838520696E-02   9.57305816147930E-01
      1.05825684001723E-18   4.26941838520696E-02   9.57305816147930E-01   1.05825684001723E-18   4.26941838520696E-02
      3.00000000000000E-02
      0.00000000000000E+00   0.00000000000000E+00   0.00000000000000E+00   0.00000000000000E+00   5.09672279363472E+03
     -3.29927356905119E-13   5.09672279363472E+03   2.94651961036031E-19   2.70000000000000E-02   2.70000000000000E-02
      0.00000000000000E+00   0.00000000000000E+00  -5.09672279359860E+03  -3.38126458783580E-08  -5.09672279363241E+03
      6.09277701879549E-20   9.57305816147930E-01   1.05825684001723E-18   4.26941838520696E-02   9.57305816147930E-01
      1.05825684001723E-18   4.26941838520696E-02   9.57305816147930E-01   1.05825684001723E-18   4.26941838520696E-02
      4.00000000000000E-02
      0.00000000000000E+00   0.00000000000000E+00   0.00000000000000E+00   0.00000000000000E+00   5.09666541004273E+03
      3.82649308401394E-13   5.09666541004273E+03  -2.39085370118109E-19   3.60000000000000E-02   3.60000000000000E-02
      0.00000000000000E+00   0.00000000000000E+00  -5.09666540999988E+03  -4.59109024639051E-08  -5.09666541004579E+03
      3.03477584671897E-20   9.57305816147930E-01   1.05825684001723E-18   4.26941838520696E-02   9.57305816147930E-01
      1.05825684001723E-18   4.26941838520696E-02   9.57305816147930E-01   1.05825684001723E-18   4.26941838520696E-02
      5.00000000000000E-02
      0.00000000000000E+00   0.00000000000000E+00   0.00000000000000E+00   0.00000000000000E+00   5.09660766997910E+03
      1.07292209051409E-12   5.09660766997910E+03  -4.67796761576515E-19   4.50000000000000E-02   4.50000000000000E-02
      0.00000000000000E+00   0.00000000000000E+00  -5.09660767007082E+03   9.08311465791077E-08  -5.09660766997999E+03
     -1.08384851668535E-20   9.57305816147930E-01   1.05825684001723E-18   4.26941838520696E-02   9.57305816147930E-01
      1.05825684001723E-18   4.26941838520696E-02   9.57305816147930E-01   1.05825684001723E-18   4.26941838520696E-02
      6.00000000000000E-02
      0.00000000000000E+00   0.00000000000000E+00   0.00000000000000E+00   0.00000000000000E+00   5.09654956892670E+03
      1.13670147562764E-12   5.09654956892670E+03  -2.81413525582231E-20   5.40000000000000E-02   5.40000000000000E-02
      0.00000000000000E+00   0.00000000000000E+00  -5.09654956892758E+03   1.12751800023513E-09  -5.09654956892645E+03
     -1.03739786597026E-20   9.57305816147930E-01   1.05825684001723E-18   4.26941838520696E-02   9.57305816147930E-01
      1.05825684001723E-18   4.26941838520696E-02   9.57305816147930E-01   1.05825684001723E-18   4.26941838520696E-02
      7.00000000000000E-02
      0.00000000000000E+00   0.00000000000000E+00   0.00000000000000E+00   0.00000000000000E+00   5.09649110226572E+03
      7.22391994048585E-13   5.09649110226572E+03  -6.35270711842199E-19   6.30000000000000E-02   6.30000000000000E-02
      0.00000000000000E+00   0.00000000000000E+00  -5.09649110194598E+03  -3.22034377497633E-07  -5.09649110226801E+03
      8.51595263109916E-21   9.57305816147930E-01   1.05825684001723E-18   4.26941838520696E-02   9.57305816147930E-01
      1.05825684001723E-18   4.26941838520696E-02   9.57305816147930E-01   1.05825684001723E-18   4.26941838520696E-02
      8.00000000000000E-02
      0.00000000000000E+00   0.00000000000000E+00   0.00000000000000E+00   0.00000000000000E+00   5.09643226527628E+03
     -9.38410233213863E-13   5.09643226527628E+03   4.93131720654035E-19   7.20000000000000E-02   7.20000000000000E-02
      0.00000000000000E+00   0.00000000000000E+00  -5.09643226518453E+03  -9.07518484436925E-08  -5.09643226527528E+03
     -4.26571809066876E-20   9.57305816147930E-01   1.05825684001723E-18   4.26941838520696E-02   9.57305816147930E-01
      1.05825684001723E-18   4.26941838520696E-02   9.57305816147930E-01   1.05825684001723E-18   4.26941838520696E-02
      9.00000000000000E-02
      0.00000000000000E+00   0.00000000000000E+00   0.00000000000000E+00   0.00000000000000E+00   5.09637305314129E+03
      1.34052818542003E-13   5.09637305314129E+03   3.72185838854629E-20   8.10000000000000E-02   8.10000000000000E-02
      0.00000000000000E+00   0.00000000000000E+00  -5.09637305308404E+03  -5.77391073040516E-08  -5.09637305314178E+03
      5.41150080830755E-20   9.57305816147930E-01   1.05825684001723E-18   4.26941838520696E-02   9.57305816147930E-01
      1.05825684001723E-18   4.26941838520696E-02   9.57305816147930E-01   1.05825684001723E-18   4.26941838520696E-02
      1.00000000000000E-01
      0.00000000000000E+00   0.00000000000000E+00   0.00000000000000E+00   0.00000000000000E+00   5.09631346094934E+03
      1.41410939813570E-13   5.09631346094934E+03  -1.20446537304219E-18   9.00000000000000E-02   9.00000000000000E-02
      0.00000000000000E+00   0.00000000000000E+00  -5.09631346097436E+03   2.46058409480508E-08  -5.09631346094976E+03
     -1.81157537788837E-20   9.57305816147930E-01   1.05825684001723E-18   4.26941838520696E-02   9.57305816147930E-01
      1.05825684001723E-18   4.26941838520696E-02   9.57305816147930E-01   1.05825684001723E-18   4.26941838520696E-02
      1.10000000000000E-01
      0.00000000000000E+00   0.00000000000000E+00   0.00000000000000E+00   0.00000000000000E+00   5.09625348369674E+03
      6.09306445845562E-14   5.09625348369674E+03   2.28459783767033E-19   9.90000000000000E-02   9.90000000000000E-02
      0.00000000000000E+00   0.00000000000000E+00  -5.09625348385908E+03   1.60219230118416E-07  -5.09625348369886E+03
     -2.07479573194052E-20   9.57305816147930E-01   1.05825684001723E-18   4.26941838520696E-02   9.57305816147930E-01
      1.05825684001723E-18   4.26941838520696E-02   9.57305816147930E-01   1.05825684001723E-18   4.26941838520696E-02
      1.20000000000000E-01
      0.00000000000000E+00   0.00000000000000E+00   0.00000000000000E+00   0.00000000000000E+00   5.09619311628855E+03
      9.07573629573020E-13   5.09619311628856E+03  -1.13126688929033E-19   1.08000000000000E-01   1.08000000000000E-01
      0.00000000000000E+00   0.00000000000000E+00  -5.09619311601934E+03  -2.69694007531603E-07  -5.09619311628904E+03
     -2.24511478456250E-21   9.57305816147930E-01   1.05825684001723E-18   4.26941838520696E-02   9.57305816147930E-01
      1.05825684001723E-18   4.26941838520696E-02   9.57305816147930E-01   1.05825684001723E-18   4.26941838520696E-02
      1.30000000000000E-01
      0.00000000000000E+00   0.00000000000000E+00   0.00000000000000E+00   0.00000000000000E+00   5.09613235353781E+03
     -2.79473596920078E-14   5.09613235353781E+03   2.25285655968169E-19   1.17000000000000E-01   1.17000000000000E-01
      0.00000000000000E+00   0.00000000000000E+00  -5.09613235387234E+03   3.34980939004492E-07  -5.09613235353736E+03
     -6.26309607141747E-20   9.57305816147930E-01   1.05825684001723E-18   4.26941838520696E-02   9.57305816147930E-01
      1.05825684001723E-18   4.26941838520696E-02   9.57305816147930E-01   1.05825684001723E-18   4.26941838520696E-02
      1.40000000000000E-01
      0.00000000000000E+00   0.00000000000000E+00   0.00000000000000E+00   0.00000000000000E+00   5.09607119016268E+03
     -3.71362355405008E-13   5.09607119016268E+03   9.28742052172555E-19   1.26000000000000E-01   1.26000000000000E-01
      0.00000000000000E+00   0.00000000000000E+00  -5.09607119021217E+03   5.07362042647853E-08  -5.09607119016143E+03
     -5.36505015759247E-20   9.57305816147930E-01   1.05825684001723E-18   4.26941838520696E-02   9.57305816147930E-01
      1.05825684001723E-18   4.26941838520696E-02   9.57305816147930E-01   1.05825684001723E-18   4.26941838520696E-02
      1.50000000000000E-01
      0.00000000000000E+00   0.00000000000000E+00   0.00000000000000E+00   0.00000000000000E+00   5.09600962078149E+03
     -1.01096535929350E-13   5.09600962078149E+03   5.45775791464466E-19   1.35000000000000E-01   1.35000000000000E-01
      0.00000000000000E+00   0.00000000000000E+00  -5.09600962082213E+03   3.81517117926646E-08  -5.09600962078398E+03
      2.19866413384742E-20   9.57305816147930E-01   1.05825684001723E-18   4.26941838520696E-02   9.57305816147930E-01
      1.05825684001723E-18   4.26941838520696E-02   9.57305816147930E-01   1.05825684001723E-18   4.26941838520696E-02
      1.60000000000000E-01
      0.00000000000000E+00   0.00000000000000E+00   0.00000000000000E+00   0.00000000000000E+00   5.09594763990525E+03
     -1.93957376490524E-13   5.09594763990525E+03  -2.20872844150235E-19   1.44000000000000E-01   1.44000000000000E-01
      0.00000000000000E+00   0.00000000000000E+00  -5.09594764014475E+03   2.44584984066116E-07  -5.09594763990017E+03
     -1.47867904776358E-20   9.57305816147930E-01   1.05825684001723E-18   4.26941838520696E-02   9.57305816147930E-01
      1.05825684001723E-18   4.26941838520696E-02   9.57305816147930E-01   1.05825684001723E-18   4.26941838520696E-02
      1.70000000000000E-01
      0.00000000000000E+00   0.00000000000000E+00   0.00000000000000E+00   0.00000000000000E+00   5.09588524192818E+03
      8.44766326535715E-13   5.09588524192818E+03   6.09316410755145E-19   1.53000000000000E-01   1.53000000000000E-01
      0.00000000000000E+00   0.00000000000000E+00  -5.09588524155111E+03  -3.77919442162468E-07  -5.09588524192903E+03
     -2.97284164576552E-20   9.57305816147930E-01   1.05825684001723E-18   4.26941838520696E-02   9.57305816147930E-01
      1.05825684001723E-18   4.26941838520696E-02   9.57305816147930E-01   1.05825684001723E-18   4.26941838520696E-02
      1.80000000000000E-01
      0.00000000000000E+00   0.00000000000000E+00   0.00000000000000E+00   0.00000000000000E+00   5.09582242111653E+03
     -1.01415162832119E-12   5.09582242111653E+03   7.85886946785866E-19   1.62000000000000E-01   1.62000000000000E-01
      0.00000000000000E+00   0.00000000000000E+00  -5.09582242119864E+03   8.27355152770239E-08  -5.09582242111591E+03
      1.60254744967048E-20   9.57305816147930E-01   1.05825684001723E-18   4.26941838520696E-02   9.57305816147930E-01
      1.05825684001723E-18   4.26941838520696E-02   9.57305816147930E-01   1.05825684001723E-18   4.26941838520696E-02
      1.90000000000000E-01
      0.00000000000000E+00   0.00000000000000E+00   0.00000000000000E+00   0.00000000000000E+00   5.09575917159601E+03
      1.10555434576800E-12   5.09575917159601E+03  -1.20229767600882E-19   1.71000000000000E-01   1.71000000000000E-01
      0.00000000000000E+00   0.00000000000000E+00  -5.09575917168952E+03   9.44599626685710E-08  -5.09575917159506E+03
     -3.75476093280281E-20   9.57305816147930E-01   1.05825684001723E-18   4.26941838520696E-02   9.57305816147930E-01
      1.05825684001723E-18   4.26941838520696E-02   9.57305816147930E-01   1.05825684001723E-18   4.26941838520696E-02
      2.00000000000000E-01
      0.00000000000000E+00   0.00000000000000E+00   0.00000000000000E+00   0.00000000000000E+00   5.09569548733899E+03
      6.16988594475877E-13   5.09569548733899E+03  -8.88059023921258E-19   1.80000000000000E-01   1.80000000000000E-01
      0.00000000000000E+00   0.00000000000000E+00  -5.09569548742217E+03   8.03056526913418E-08  -5.09569548734187E+03
     -5.27989063128148E-20   9.57305816147930E-01   1.05825684001723E-18   4.26941838520696E-02   9.57305816147930E-01
      1.05825684001723E-18   4.26941838520696E-02   9.57305816147930E-01   1.05825684001723E-18   4.26941838520696E-02
      2.10000000000000E-01
      0.00000000000000E+00   0.00000000000000E+00   0.00000000000000E+00   0.00000000000000E+00   5.09563136215186E+03
      3.52082727559507E-13   5.09563136215186E+03  -2.10189194485766E-19   1.89000000000000E-01   1.89000000000000E-01
      0.00000000000000E+00   0.00000000000000E+00  -5.09563136239941E+03   2.48119423515034E-07  -5.09563136215129E+03
     -9.29013014301726E-22   9.57305816147930E-01   1.05825684001723E-18   4.26941838520696E-02   9.57305816147930E-01
      1.05825684001723E-18   4.26941838520696E-02   9.57305816147930E-01   1.05825684001723E-18   4.26941838520696E-02
      2.20000000000000E-01
      0.00000000000000E+00   0.00000000000000E+00   0.00000000000000E+00   0.00000000000000E+00   5.09556678966348E+03
      4.12041290067820E-13   5.09556678966348E+03   8.07080056174624E-20   1.98000000000000E-01   1.98000000000000E-01
      0.00000000000000E+00   0.00000000000000E+00  -5.09556678980850E+03   1.47245366066310E-07  -5.09556678966125E+03
      2.52381868885302E-20   9.57305816147930E-01   1.05825684001723E-18   4.26941838520696E-02   9.57305816147930E-01
      1.05825684001723E-18   4.26941838520696E-02   9.57305816147930E-01   1.05825684001723E-18   4.26941838520696E-02
      2.30000000000000E-01
      0.00000000000000E+00   0.00000000000000E+00   0.00000000000000E+00   0.00000000000000E+00   5.09550176331516E+03
      6.45935038524024E-13   5.09550176331516E+03   2.49846437533770E-19   2.07000000000000E-01   2.07000000000000E-01
      0.00000000000000E+00   0.00000000000000E+00  -5.09550176357856E+03   2.61826169190865E-07  -5.09550176331674E+03
     -4.91602720067997E-20   9.57305816147930E-01   1.05825684001723E-18   4.26941838520696E-02   9.57305816147930E-01
      1.05825684001723E-18   4.26941838520696E-02   9.57305816147930E-01   1.05825684001723E-18   4.26941838520696E-02
      2.40000000000000E-01
      0.00000000000000E+00   0.00000000000000E+00   0.00000000000000E+00   0.00000000000000E+00   5.09543627635311E+03
     -1.60663565379175E-14   5.09543627635311E+03  -1.66796544942756E-19   2.16000000000000E-01   2.16000000000000E-01
      0.00000000000000E+00   0.00000000000000E+00  -5.09543627666356E+03   3.07734834137849E-07  -5.09543627635582E+03
     -3.59218365530001E-20   9.57305816147930E-01   1.05825684001723E-18   4.26941838520696E-02   9.57305816147930E-01
      1.05825684001723E-18   4.26941838520696E-02   9.57305816147930E-01   1.05825684001723E-18   4.26941838520696E-02
      2.50000000000000E-01
      0.00000000000000E+00   0.00000000000000E+00   0.00000000000000E+00   0.00000000000000E+00   5.09537032182312E+03
      1.23789251953663E-12   5.09537032182312E+03   5.39504953617929E-19   2.25000000000000E-01   2.25000000000000E-01
      0.00000000000000E+00   0.00000000000000E+00  -5.09537032173785E+03  -8.50669612490517E-08  -5.09537032182292E+03
      4.72248282270044E-21   9.57305816147930E-01   1.05825684001723E-18   4.26941838520696E-02   9.57305816147930E-01
      1.05825684001723E-18   4.26941838520696E-02   9.57305816147930E-01   1.05825684001723E-18   4.26941838520696E-02
      2.60000000000000E-01
      0.00000000000000E+00   0.00000000000000E+00   0.00000000000000E+00   0.00000000000000E+00   5.09530389256794E+03
      1.72235392428460E-12   5.09530389256794E+03   2.03899002201431E-19   2.34000000000000E-01   2.34000000000000E-01
      0.00000000000000E+00   0.00000000000000E+00  -5.09530389240601E+03  -1.62061646223965E-07  -5.09530389256807E+03
      1.64125632526638E-20   9.57305816147930E-01   1.05825684001723E-18   4.26941838520696E-02   9.57305816147930E-01
      1.05825684001723E-18   4.26941838520696E-02   9.57305816147930E-01   1.05825684001723E-18   4.26941838520696E-02
      2.70000000000000E-01
      0.00000000000000E+00   0.00000000000000E+00   0.00000000000000E+00   0.00000000000000E+00   5.09523698122675E+03
      2.49480814525974E-12   5.09523698122676E+03   9.07974740415352E-19   2.43000000000000E-01   2.43000000000000E-01
      0.00000000000000E+00   0.00000000000000E+00  -5.09523698088773E+03  -3.38096467675327E-07  -5.09523698122583E+03
     -5.78310601402824E-20   9.57305816147930E-01   1.05825684001723E-18   4.26941838520696E-02   9.57305816147930E-01
      1.05825684001723E-18   4.26941838520696E-02   9.57305816147930E-01   1.05825684001723E-18   4.26941838520696E-02
      2.80000000000000E-01
      0.00000000000000E+00   0.00000000000000E+00   0.00000000000000E+00   0.00000000000000E+00   5.09516958023659E+03
     -2.15140665068669E-13   5.09516958023659E+03   3.71837458974266E-19   2.52000000000000E-01   2.52000000000000E-01
      0.00000000000000E+00   0.00000000000000E+00  -5.09516958022275E+03  -1.50145192316645E-08  -5.09516958023776E+03
     -3.71605205720690E-21   9.57305816147930E-01   1.05825684001723E-18   4.26941838520696E-02   9.57305816147930E-01
      1.05825684001723E-18   4.26941838520696E-02   9.57305816147930E-01   1.05825684001723E-18   4.26941838520696E-02
      2.90000000000000E-01
      0.00000000000000E+00   0.00000000000000E+00   0.00000000000000E+00   0.00000000000000E+00   5.09510168183447E+03
     -1.31413345682202E-12   5.09510168183447E+03  -1.37416508365464E-20   2.61000000000000E-01   2.61000000000000E-01
      0.00000000000000E+00   0.00000000000000E+00  -5.09510168186472E+03   3.06721744455191E-08  -5.09510168183405E+03