DF-ISE text

Info {
  version   = 1.0
  type      = xyplot
  datasets  = [
    "time"
    "back OuterVoltage" "back InnerVoltage" "back QuasiFermiPotential" "back DisplacementCurrent" "back eCurrent"
    "back hCurrent" "back TotalCurrent" "back Charge" "front OuterVoltage" "front InnerVoltage"
    "front QuasiFermiPotential" "front DisplacementCurrent" "front eCurrent" "front hCurrent" "front TotalCurrent"
    "front Charge" "Stripe0 R_TE" "Stripe0 T_TE" "Stripe0 A_TE" "Stripe0 R_TM"
    "Stripe0 T_TM" "Stripe0 A_TM" "Stripe0 R_Total" "Stripe0 T_Total" "Stripe0 A_Total" ]
  functions = [
    Time
    OuterVoltage InnerVoltage QuasiFermiPotential DisplacementCurrent eCurrent
    hCurrent TotalCurrent Charge OuterVoltage InnerVoltage
    QuasiFermiPotential DisplacementCurrent eCurrent hCurrent TotalCurrent
    Charge R_TE T_TE A_TE R_TM
    T_TM A_TM R_Total T_Total A_Total ]
}

Data {
      0.00000000000000E+00
      0.00000000000000E+00   0.00000000000000E+00   0.00000000000000E+00   0.00000000000000E+00   8.78346896401490E+00
     -8.78346896401490E+00  -1.68764249347873E-18   1.77100666178531E-23   0.00000000000000E+00   0.00000000000000E+00
      0.00000000000000E+00   0.00000000000000E+00   6.49834388439398E+00  -6.49834388439398E+00   1.81421568048964E-17
      2.85780370610394E-22   9.81190276920696E-01   4.73094837375092E-19   1.88097230793038E-02   9.81190276920696E-01
      4.73094837375092E-19   1.88097230793038E-02   9.81190276920696E-01   4.73094837375092E-19   1.88097230793038E-02
      1.00000000000000E-10
      0.00000000000000E+00   0.00000000000000E+00   0.00000000000000E+00   5.35781421033729E+00   2.54208674636176E+00
      6.19681228074223E-19   7.89990095669905E+00  -1.87874132530907E-23   0.00000000000000E+00   0.00000000000000E+00
      0.00000000000000E+00  -7.90524523937684E+00  -2.53696554849236E+00   5.71062621084357E-19  -1.04422107878692E+01
      2.14713294321037E-22   9.81190276920696E-01   4.73094837375092E-19   1.88097230793038E-02   9.81190276920696E-01
      4.73094837375092E-19   1.88097230793038E-02   9.81190276920696E-01   4.73094837375092E-19   1.88097230793038E-02
      3.00000000000000E-10
      0.00000000000000E+00   0.00000000000000E+00   0.00000000000000E+00   5.23042260955483E+00   4.79294994353498E+00
      4.47868015237154E-19   1.00233725530898E+01   4.92555321303365E-23   0.00000000000000E+00   0.00000000000000E+00
      0.00000000000000E+00  -6.67735453169328E+00  -4.79084792281861E+00  -1.28550893057950E-19  -1.14682024545119E+01
      2.47676321195675E-22   9.81190276920696E-01   4.73094837375092E-19   1.88097230793038E-02   9.81190276920696E-01
      4.73094837375092E-19   1.88097230793038E-02   9.81190276920696E-01   4.73094837375092E-19   1.88097230793038E-02
      7.00000000000000E-10
      0.00000000000000E+00   0.00000000000000E+00   0.00000000000000E+00   3.65324600605559E+00   6.75711607398996E+00
      1.31435047709892E-19   1.04103620800456E+01  -1.61412987104019E-23   0.00000000000000E+00   0.00000000000000E+00
      0.00000000000000E+00  -4.81616198810385E+00  -6.75621005140471E+00   4.04605695458036E-18  -1.15723720395086E+01
     -3.19045810575625E-22   9.81190276920696E-01   4.73094837375092E-19   1.88097230793038E-02   9.81190276920696E-01
      4.73094837375092E-19   1.88097230793038E-02   9.81190276920696E-01   4.73094837375092E-19   1.88097230793038E-02
      1.50000000000000E-09
      0.00000000000000E+00   0.00000000000000E+00   0.00000000000000E+00   2.10231295161264E+00   8.34437745465123E+00
      3.03248260546960E-19   1.04466904062639E+01   1.68784306187224E-23   0.00000000000000E+00   0.00000000000000E+00
      0.00000000000000E+00  -3.23456530051703E+00  -8.34401215881199E+00  -1.94968854471225E-18  -1.15785774593290E+01
      1.65419960554376E-22   9.81190276920696E-01   4.73094837375092E-19   1.88097230793038E-02   9.81190276920696E-01
      4.73094837375092E-19   1.88097230793038E-02   9.81190276920696E-01   4.73094837375092E-19   1.88097230793038E-02
      3.10000000000000E-09
      0.00000000000000E+00   0.00000000000000E+00   0.00000000000000E+00   1.10062845531254E+00   9.34780896108793E+00
     -8.52885732788325E-20   1.04484374164005E+01   1.06222598070795E-23   0.00000000000000E+00   0.00000000000000E+00
      0.00000000000000E+00  -2.23107521276395E+00  -9.34769346598176E+00   3.36210027997717E-19  -1.15787686787457E+01
     -3.14509614216730E-23   9.81190276920696E-01   4.73094837375092E-19   1.88097230793038E-02   9.81190276920696E-01
      4.73094837375092E-19   1.88097230793038E-02   9.81190276920696E-01   4.73094837375092E-19   1.88097230793038E-02
      6.30000000000000E-09
      0.00000000000000E+00   0.00000000000000E+00   0.00000000000000E+00   6.47788328997628E-01   9.80069547807969E+00
     -4.61464744310591E-20   1.04484838070773E+01   2.96931853326012E-23   0.00000000000000E+00   0.00000000000000E+00
      0.00000000000000E+00  -1.77808908756909E+00  -9.80066934240525E+00  -6.39540692963303E-18  -1.15787584299743E+01
     -6.35067490245321E-23   9.81190276920696E-01   4.73094837375092E-19   1.88097230793038E-02   9.81190276920696E-01
      4.73094837375092E-19   1.88097230793038E-02   9.81190276920696E-01   4.73094837375092E-19   1.88097230793038E-02
      1.27000000000000E-08
      0.00000000000000E+00   0.00000000000000E+00   0.00000000000000E+00   4.72723102591384E-01   9.97576497165651E+00
      2.21255864013203E-19   1.04484880742479E+01  -2.89182517879566E-23   0.00000000000000E+00   0.00000000000000E+00
      0.00000000000000E+00  -1.60296998816341E+00  -9.97575985091734E+00   2.97479951243078E-18  -1.15787298390808E+01
     -9.82842544427282E-23   9.81190276920696E-01   4.73094837375092E-19   1.88097230793038E-02   9.81190276920696E-01
      4.73094837375092E-19   1.88097230793038E-02   9.81190276920696E-01   4.73094837375092E-19   1.88097230793038E-02
      2.55000000000000E-08
      0.00000000000000E+00   0.00000000000000E+00   0.00000000000000E+00   3.76393317911756E-01   1.00720997732148E+01
     -5.27388279212104E-20   1.04484930911265E+01   2.23029654312345E-24   0.00000000000000E+00   0.00000000000000E+00
      0.00000000000000E+00  -1.50657612101124E+00  -1.00720983127476E+01  -7.77238476488839E-18  -1.15786744337588E+01
     -7.80225773729965E-23   9.81190276920696E-01   4.73094837375092E-19   1.88097230793038E-02   9.81190276920696E-01
      4.73094837375092E-19   1.88097230793038E-02   9.81190276920696E-01   4.73094837375092E-19   1.88097230793038E-02
      5.11000000000000E-08
      0.00000000000000E+00   0.00000000000000E+00   0.00000000000000E+00   2.83275395441776E-01   1.01652241082849E+01
      1.05477655842421E-19   1.04484995037267E+01  -3.69132978705093E-23   0.00000000000000E+00   0.00000000000000E+00
      0.00000000000000E+00  -1.41334643873225E+00  -1.01652233802092E+01  -3.13548812875321E-18  -1.15785698189415E+01
     -8.72461766360833E-23   9.81190276920696E-01   4.73094837375092E-19   1.88097230793038E-02   9.81190276920696E-01
      4.73094837375092E-19   1.88097230793038E-02   9.81190276920696E-01   4.73094837375092E-19   1.88097230793038E-02
      1.02300000000000E-07
      0.00000000000000E+00   0.00000000000000E+00   0.00000000000000E+00   1.80298630765303E-01   1.02682069276628E+01
      6.72420055995433E-19   1.04485055584281E+01  -5.59464217597068E-24   0.00000000000000E+00   0.00000000000000E+00
      0.00000000000000E+00  -1.31016831318201E+00  -1.02682065196647E+01   6.68299835064088E-18  -1.15783748328467E+01
      1.14765767880047E-22   9.81190276920696E-01   4.73094837375092E-19   1.88097230793038E-02   9.81190276920696E-01
      4.73094837375092E-19   1.88097230793038E-02   9.81190276920696E-01   4.73094837375092E-19   1.88097230793038E-02
      2.04700000000000E-07
      0.00000000000000E+00   0.00000000000000E+00   0.00000000000000E+00   8.33874425270049E-02   1.03651217202707E+01
     -3.75764148938624E-19   1.04485091627977E+01  -4.61179963154340E-24   0.00000000000000E+00   0.00000000000000E+00
      0.00000000000000E+00  -1.21288905951659E+00  -1.03651215285381E+01  -3.41154293115330E-18  -1.15780105880547E+01
      2.29833948850687E-23   9.81190276920696E-01   4.73094837375092E-19   1.88097230793038E-02   9.81190276920696E-01
      4.73094837375092E-19   1.88097230793038E-02   9.81190276920696E-01   4.73094837375092E-19   1.88097230793038E-02
      4.09500000000000E-07
      0.00000000000000E+00   0.00000000000000E+00   0.00000000000000E+00   5.91551525629635E-03   1.04425967767802E+01
      2.60397962860977E-19   1.04485122920365E+01  -1.32683743497683E-23   0.00000000000000E+00   0.00000000000000E+00
      0.00000000000000E+00  -1.13472378896216E+00  -1.04425967060012E+01  -5.38348066889481E-18  -1.15773204949633E+01
     -2.41930472474408E-23   9.81190276920696E-01   4.73094837375092E-19   1.88097230793038E-02   9.81190276920696E-01
      4.73094837375092E-19   1.88097230793038E-02   9.81190276920696E-01   4.73094837375092E-19   1.88097230793038E-02
      8.19100000000000E-07
      0.00000000000000E+00   0.00000000000000E+00   0.00000000000000E+00  -4.96199139591495E-02   1.04981432979200E+01
     -5.27388279212104E-20   1.04485233839608E+01   5.89327510293128E-23   0.00000000000000E+00   0.00000000000000E+00
      0.00000000000000E+00  -1.07784904283791E+00  -1.04981432836506E+01   4.85774047805524E-18  -1.15759923264885E+01
      2.75195912439639E-22   9.81190276920696E-01   4.73094837375092E-19   1.88097230793038E-02   9.81190276920696E-01
      4.73094837375092E-19   1.88097230793038E-02   9.81190276920696E-01   4.73094837375092E-19   1.88097230793038E-02
      1.63830000000000E-06
      0.00000000000000E+00   0.00000000000000E+00   0.00000000000000E+00  -8.05223692536282E-02   1.05290779630997E+01
     -2.23727996572010E-19   1.04485555938460E+01  -2.41552456111167E-23   0.00000000000000E+00   0.00000000000000E+00
      0.00000000000000E+00  -1.04431437140632E+00  -1.05290779734675E+01  -2.82482347052983E-18  -1.15733923448738E+01
      9.54113300820946E-23   9.81190276920696E-01   4.73094837375092E-19   1.88097230793038E-02   9.81190276920696E-01
      4.73094837375092E-19   1.88097230793038E-02   9.81190276920696E-01   4.73094837375092E-19   1.88097230793038E-02
      3.27670000000000E-06
      0.00000000000000E+00   0.00000000000000E+00   0.00000000000000E+00  -8.85311961260085E-02   1.05371567380187E+01
     -9.16337135131031E-19   1.04486255418927E+01  -3.12241516037283E-23   0.00000000000000E+00   0.00000000000000E+00
      0.00000000000000E+00  -1.03106024817705E+00  -1.05371567562717E+01   3.37775711951627E-18  -1.15682170044488E+01
     -4.53619635889515E-24   9.81190276920696E-01   4.73094837375092E-19   1.88097230793038E-02   9.81190276920696E-01
      4.73094837375092E-19   1.88097230793038E-02   9.81190276920696E-01   4.73094837375092E-19   1.88097230793038E-02
      6.55350000000000E-06
      0.00000000000000E+00   0.00000000000000E+00   0.00000000000000E+00  -8.09063300721445E-02   1.05296593283914E+01
     -5.83423283878390E-19   1.04487529983193E+01  -1.26446473504202E-23   0.00000000000000E+00   0.00000000000000E+00
      0.00000000000000E+00  -1.02808485117601E+00  -1.05296593465940E+01  -5.72381091782387E-18  -1.15577441977700E+01
     -8.81534159078624E-23   9.81190276920696E-01   4.73094837375092E-19   1.88097230793038E-02   9.81190276920696E-01
      4.73094837375092E-19   1.88097230793038E-02   9.81190276920696E-01   4.73094837375092E-19   1.88097230793038E-02
      1.31071000000000E-05
      0.00000000000000E+00   0.00000000000000E+00   0.00000000000000E+00  -5.99266591151820E-02   1.05088680333559E+01
     -4.48280037330289E-19   1.04489413742407E+01   7.18231090158398E-24   0.00000000000000E+00   0.00000000000000E+00
      0.00000000000000E+00  -1.02631957896702E+00  -1.05088680474109E+01  -1.97770604704539E-20  -1.15351876263779E+01
     -9.02703075420134E-23   9.81190276920696E-01   4.73094837375092E-19   1.88097230793038E-02   9.81190276920696E-01
      4.73094837375092E-19   1.88097230793038E-02   9.81190276920696E-01   4.73094837375092E-19   1.88097230793038E-02
      2.62143000000000E-05
      0.00000000000000E+00   0.00000000000000E+00   0.00000000000000E+00  -7.77476712605413E-03   1.04567644852987E+01
     -1.15778208170782E-19   1.04489897181727E+01   3.18667794212384E-23   0.00000000000000E+00   0.00000000000000E+00
      0.00000000000000E+00  -9.67452610014095E-01  -1.04567644878029E+01   2.37283523436134E-18  -1.14242170978170E+01
      1.54835502383621E-22   9.81190276920696E-01   4.73094837375092E-19   1.88097230793038E-02   9.81190276920696E-01
      4.73094837375092E-19   1.88097230793038E-02   9.81190276920696E-01   4.73094837375092E-19   1.88097230793038E-02
      5.24287000000000E-05
      0.00000000000000E+00   0.00000000000000E+00   0.00000000000000E+00   1.61522093702924E-01   1.02854127695906E+01
     -3.75352126845490E-19   1.04469348632936E+01  -1.99970656154628E-23   0.00000000000000E+00   0.00000000000000E+00
      0.00000000000000E+00  -3.49189941337981E-01  -1.02854127387406E+01  -1.27335427883204E-18  -1.06346026800786E+01
      1.37522352947171E-22   9.81190276920696E-01   4.73094837375092E-19   1.88097230793038E-02   9.81190276920696E-01
      4.73094837375092E-19   1.88097230793038E-02   9.81190276920696E-01   4.73094837375092E-19   1.88097230793038E-02
      1.04857500000000E-04
      0.00000000000000E+00   0.00000000000000E+00   0.00000000000000E+00   2.39683719183148E-01   1.02008845314240E+01
     -8.92027831636098E-20   1.04405682506072E+01   1.10758794429690E-23   0.00000000000000E+00   0.00000000000000E+00
      0.00000000000000E+00  -2.86928751007000E-02  -1.02008845044728E+01   1.84256280049729E-18  -1.02295773795735E+01
     -4.27914523189109E-23   9.81190276920696E-01   4.73094837375092E-19   1.88097230793038E-02   9.81190276920696E-01
      4.73094837375092E-19   1.88097230793038E-02   9.81190276920696E-01   4.73094837375092E-19   1.88097230793038E-02
      2.09715100000000E-04
      0.00000000000000E+00   0.00000000000000E+00   0.00000000000000E+00   2.64873942840980E-01   1.01600654087921E+01
      6.46050642034828E-19   1.04249393516330E+01  -8.39196326395602E-23   0.00000000000000E+00   0.00000000000000E+00
      0.00000000000000E+00  -1.93612894875263E-03  -1.01600654005053E+01  -5.18488602000400E-18  -1.01620015294540E+01
     -8.58097144557665E-23   9.81190276920696E-01   4.73094837375092E-19   1.88097230793038E-02   9.81190276920696E-01
      4.73094837375092E-19   1.88097230793038E-02   9.81190276920696E-01   4.73094837375092E-19   1.88097230793038E-02
      3.14572700000000E-04
      0.00000000000000E+00   0.00000000000000E+00   0.00000000000000E+00   1.82322346980740E-01   1.00705592863836E+01
      3.33325873345775E-19   1.02528816333644E+01   2.64611454268884E-25   0.00000000000000E+00   0.00000000000000E+00
      0.00000000000000E+00  -2.40241364844520E-03  -1.00705592854857E+01   3.25167835901713E-18  -1.00729616991341E+01
     -3.95405115950360E-23   9.81190276920696E-01   4.73094837375092E-19   1.88097230793038E-02   9.81190276920696E-01
      4.73094837375092E-19   1.88097230793038E-02   9.81190276920696E-01   4.73094837375092E-19   1.88097230793038E-02
      4.19430300000000E-04
      0.00000000000000E+00   0.00000000000000E+00   0.00000000000000E+00   1.86402202076754E-02   9.99667285349008E+00
     -4.97722688506423E-19   1.00153130736978E+01   1.41189111670611E-23   0.00000000000000E+00   0.00000000000000E+00
      0.00000000000000E+00  -1.89487925884531E-03  -9.99667285350296E+00  -2.88745082868627E-18  -9.99856773276180E+00
      2.26734214672109E-22   9.81190276920696E-01   4.73094837375092E-19   1.88097230793038E-02   9.81190276920696E-01
      4.73094837375092E-19   1.88097230793038E-02   9.81190276920696E-01   4.73094837375092E-19   1.88097230793038E-02
      6.29145500000000E-04
      0.00000000000000E+00   0.00000000000000E+00   0.00000000000000E+00   6.28051095859842E-04   9.98970112646138E+00
      1.18332745148216E-18   9.99032917755724E+00  -4.66850208602959E-24   0.00000000000000E+00   0.00000000000000E+00
      0.00000000000000E+00  -1.08539907109770E-04  -9.98970112645673E+00   2.85093537068223E-19  -9.98980966636384E+00
      3.84064625053122E-23   9.81190276920696E-01   4.73094837375092E-19   1.88097230793038E-02   9.81190276920696E-01
      4.73094837375092E-19   1.88097230793038E-02   9.81190276920696E-01   4.73094837375092E-19   1.88097230793038E-02
      1.04857590000000E-03
      0.00000000000000E+00   0.00000000000000E+00   0.00000000000000E+00   1.05442700917603E-05   9.98945372557197E+00
      3.26321497762490E-19   9.98946426984206E+00  -2.64611454268884E-23   0.00000000000000E+00   0.00000000000000E+00
      0.00000000000000E+00  -2.18658271125173E-06  -9.98945372561316E+00  -5.44695782261834E-18  -9.98945591219587E+00
     -6.65308799304622E-23   9.81190276920696E-01   4.73094837375092E-19   1.88097230793038E-02   9.81190276920696E-01
      4.73094837375092E-19   1.88097230793038E-02   9.81190276920696E-01   4.73094837375092E-19   1.88097230793038E-02
      1.88743670000000E-03
      0.00000000000000E+00   0.00000000000000E+00   0.00000000000000E+00   8.98277919204119E-08   9.98944943317270E+00
      1.74697367489010E-19   9.98944952300049E+00   5.17882417640529E-23   0.00000000000000E+00   0.00000000000000E+00
      0.00000000000000E+00  -1.99808897404000E-08  -9.98944943318262E+00  -7.21038662985299E-18  -9.98944945316351E+00
      2.37394276115513E-23   9.81190276920696E-01   4.73094837375092E-19   1.88097230793038E-02   9.81190276920696E-01
      4.73094837375092E-19   1.88097230793038E-02   9.81190276920696E-01   4.73094837375092E-19   1.88097230793038E-02
      3.56515830000000E-03
      0.00000000000000E+00   0.00000000000000E+00   0.00000000000000E+00   4.07890334213295E-10   9.98944939606480E+00
      5.57053869917785E-19   9.98944939647269E+00   3.06949286951905E-23   0.00000000000000E+00   0.00000000000000E+00
      0.00000000000000E+00  -9.09565891536571E-11  -9.98944939608450E+00  -4.97393070831916E-18  -9.98944939617546E+00
     -1.48938447117057E-22   9.81190276920696E-01   4.73094837375092E-19   1.88097230793038E-02   9.81190276920696E-01
      4.73094837375092E-19   1.88097230793038E-02   9.81190276920696E-01   4.73094837375092E-19   1.88097230793038E-02
      6.92060150000000E-03
      0.00000000000000E+00   0.00000000000000E+00   0.00000000000000E+00  -1.16942317593370E-12   9.98944939592916E+00
     -1.12070009332572E-19   9.98944939592799E+00  -1.42323160760335E-23   0.00000000000000E+00   0.00000000000000E+00
      0.00000000000000E+00  -1.21450078199151E-11  -9.98944939591517E+00   7.79875417884899E-18  -9.98944939592732E+00
      1.24896606414913E-22   9.81190276920696E-01   4.73094837375092E-19   1.88097230793038E-02   9.81190276920696E-01
      4.73094837375092E-19   1.88097230793038E-02   9.81190276920696E-01   4.73094837375092E-19   1.88097230793038E-02
      1.36314879000000E-02
      0.00000000000000E+00   0.00000000000000E+00   0.00000000000000E+00  -5.40705719274519E-12   9.98944939593223E+00
     -1.45443798876463E-19   9.98944939592682E+00   1.19075154420998E-24   0.00000000000000E+00   0.00000000000000E+00
      0.00000000000000E+00  -1.12370629089936E-11  -9.98944939591555E+00   3.26295746381669E-19  -9.98944939592678E+00
      3.47775054181961E-23   9.81190276920696E-01   4.73094837375092E-19   1.88097230793038E-02   9.81190276920696E-01
      4.73094837375092E-19   1.88097230793038E-02   9.81190276920696E-01   4.73094837375092E-19   1.88097230793038E-02
      2.70532607000000E-02
      0.00000000000000E+00   0.00000000000000E+00   0.00000000000000E+00   4.71774974213876E-12   9.98944939592211E+00
      2.14251488429917E-19   9.98944939592682E+00  -7.65483135563556E-24   0.00000000000000E+00   0.00000000000000E+00
      0.00000000000000E+00  -1.07646107682292E-11  -9.98944939591611E+00   1.21461537917956E-18  -9.98944939592687E+00
      6.50188144774971E-24   9.81190276920696E-01   4.73094837375092E-19   1.88097230793038E-02   9.81190276920696E-01
      4.73094837375092E-19   1.88097230793038E-02   9.81190276920696E-01   4.73094837375092E-19   1.88097230793038E-02
      5.38968063000000E-02
      0.00000000000000E+00   0.00000000000000E+00   0.00000000000000E+00   4.71545454834763E-12   9.98944939592211E+00
     -1.54920307018556E-19   9.98944939592682E+00   1.66138191644535E-23   0.00000000000000E+00   0.00000000000000E+00
      0.00000000000000E+00  -1.07845797980333E-11  -9.98944939591611E+00   3.79060325683700E-19  -9.98944939592689E+00
      3.07100493497201E-22   9.81190276920696E-01   4.73094837375092E-19   1.88097230793038E-02   9.81190276920696E-01
      4.73094837375092E-19   1.88097230793038E-02   9.81190276920696E-01   4.73094837375092E-19   1.88097230793038E-02
      1.00000000000000E-01
      0.00000000000000E+00   0.00000000000000E+00   0.00000000000000E+00   2.73865223385750E-12   9.98944939592408E+00
      2.34028548900371E-19   9.98944939592682E+00   2.07341975237832E-23   0.00000000000000E+00   0.00000000000000E+00
      0.00000000000000E+00  -1.18050727430237E-11  -9.98944939591498E+00  -1.98921691427234E-18  -9.98944939592679E+00
      5.07297959469774E-23   9.81190276920696E-01   4.73094837375092E-19   1.88097230793038E-02   9.81190276920696E-01
      4.73094837375092E-19   1.88097230793038E-02   9.81190276920696E-01   4.73094837375092E-19   1.88097230793038E-02
      1.00000000000000E-02
      0.00000000000000E+00   0.00000000000000E+00   0.00000000000000E+00   0.00000000000000E+00   9.98894167145462E+00
     -1.45542993195385E-15   9.98894167145462E+00  -4.41334104084174E-23   2.50000000000000E-02   2.50000000000000E-02
      0.00000000000000E+00   0.00000000000000E+00  -9.98894167145165E+00  -2.93115861204845E-12  -9.98894167145458E+00
      2.24844132855903E-22   9.81190276920696E-01   4.73094837375092E-19   1.88097230793038E-02   9.81190276920696E-01
      4.73094837375092E-19   1.88097230793038E-02   9.81190276920696E-01   4.73094837375092E-19   1.88097230793038E-02
      2.00000000000000E-02
      0.00000000000000E+00   0.00000000000000E+00   0.00000000000000E+00   0.00000000000000E+00   9.98843126769189E+00
     -2.04315637457294E-15   9.98843126769189E+00   9.33700417205918E-24   5.00000000000000E-02   5.00000000000000E-02
      0.00000000000000E+00   0.00000000000000E+00  -9.98843126769703E+00   5.12030047714978E-12  -9.98843126769191E+00
      6.33555424792356E-23   9.81190276920696E-01   4.73094837375092E-19   1.88097230793038E-02   9.81190276920696E-01
      4.73094837375092E-19   1.88097230793038E-02   9.81190276920696E-01   4.73094837375092E-19   1.88097230793038E-02
      3.00000000000000E-02
      0.00000000000000E+00   0.00000000000000E+00   0.00000000000000E+00   0.00000000000000E+00   9.98791817202501E+00
     -2.74496431838328E-15   9.98791817202500E+00   3.60249594168923E-23   7.50000000000000E-02   7.50000000000000E-02
      0.00000000000000E+00   0.00000000000000E+00  -9.98791817202908E+00   3.97202550539195E-12  -9.98791817202511E+00
      2.04128836150282E-23   9.81190276920696E-01   4.73094837375092E-19   1.88097230793038E-02   9.81190276920696E-01
      4.73094837375092E-19   1.88097230793038E-02   9.81190276920696E-01   4.73094837375092E-19   1.88097230793038E-02
      4.00000000000000E-02
      0.00000000000000E+00   0.00000000000000E+00   0.00000000000000E+00   0.00000000000000E+00   9.98740237002998E+00
     -5.48958006607577E-15   9.98740237002998E+00  -1.83337936172012E-23   1.00000000000000E-01   1.00000000000000E-01
      0.00000000000000E+00   0.00000000000000E+00  -9.98740237003549E+00   5.51865411135755E-12  -9.98740237002997E+00
      9.88134773512660E-23   9.81190276920696E-01   4.73094837375092E-19   1.88097230793038E-02   9.81190276920696E-01
      4.73094837375092E-19   1.88097230793038E-02   9.81190276920696E-01   4.73094837375092E-19   1.88097230793038E-02
      5.00000000000000E-02
      0.00000000000000E+00   0.00000000000000E+00   0.00000000000000E+00   0.00000000000000E+00   9.98688384518399E+00
      7.35892059442796E-18   9.98688384518399E+00  -8.04040804614165E-23   1.25000000000000E-01   1.25000000000000E-01
      0.00000000000000E+00   0.00000000000000E+00  -9.98688384518422E+00   1.60056648981817E-13  -9.98688384518406E+00
     -2.09874684871549E-22   9.81190276920696E-01   4.73094837375092E-19   1.88097230793038E-02   9.81190276920696E-01
      4.73094837375092E-19   1.88097230793038E-02   9.81190276920696E-01   4.73094837375092E-19   1.88097230793038E-02
      6.00000000000000E-02
      0.00000000000000E+00   0.00000000000000E+00   0.00000000000000E+00   0.00000000000000E+00   9.98636257852949E+00
     -3.49225126083380E-15   9.98636257852949E+00  -4.63637069515408E-23   1.50000000000000E-01   1.50000000000000E-01
      0.00000000000000E+00   0.00000000000000E+00  -9.98636257853960E+00   1.01253949877253E-11  -9.98636257852947E+00
      7.22011253790811E-23   9.81190276920696E-01   4.73094837375092E-19   1.88097230793038E-02   9.81190276920696E-01
      4.73094837375092E-19   1.88097230793038E-02   9.81190276920696E-01   4.73094837375092E-19   1.88097230793038E-02
      7.00000000000000E-02
      0.00000000000000E+00   0.00000000000000E+00   0.00000000000000E+00   0.00000000000000E+00   9.98583854833466E+00
     -2.28588992024601E-15   9.98583854833466E+00   7.40912071952874E-24   1.75000000000000E-01   1.75000000000000E-01
      0.00000000000000E+00   0.00000000000000E+00  -9.98583854834042E+00   5.74128512380217E-12  -9.98583854833468E+00
     -4.09769737753528E-23   9.81190276920696E-01   4.73094837375092E-19   1.88097230793038E-02   9.81190276920696E-01
      4.73094837375092E-19   1.88097230793038E-02   9.81190276920696E-01   4.73094837375092E-19   1.88097230793038E-02
      8.00000000000000E-02
      0.00000000000000E+00   0.00000000000000E+00   0.00000000000000E+00   0.00000000000000E+00   9.98531172980110E+00
      1.95040134293337E-15   9.98531172980110E+00  -2.94096730601702E-23   2.00000000000000E-01   2.00000000000000E-01
      0.00000000000000E+00   0.00000000000000E+00  -9.98531172981068E+00   9.55103718675759E-12  -9.98531172980113E+00
      1.56498774381883E-23   9.81190276920696E-01   4.73094837375092E-19   1.88097230793038E-02   9.81190276920696E-01
      4.73094837375092E-19   1.88097230793038E-02   9.81190276920696E-01   4.73094837375092E-19   1.88097230793038E-02
      9.00000000000000E-02
      0.00000000000000E+00   0.00000000000000E+00   0.00000000000000E+00   0.00000000000000E+00   9.98478209487626E+00
      2.35222588926275E-16   9.98478209487626E+00  -1.14727966243723E-23   2.25000000000000E-01   2.25000000000000E-01
      0.00000000000000E+00   0.00000000000000E+00  -9.98478209486655E+00  -9.67741444495405E-12  -9.98478209487623E+00
     -9.40504711744261E-23   9.81190276920696E-01   4.73094837375092E-19   1.88097230793038E-02   9.81190276920696E-01
      4.73094837375092E-19   1.88097230793038E-02   9.81190276920696E-01   4.73094837375092E-19   1.88097230793038E-02
      1.00000000000000E-01
      0.00000000000000E+00   0.00000000000000E+00   0.00000000000000E+00   0.00000000000000E+00   9.98424961222416E+00
      1.23594184873124E-15   9.98424961222416E+00   3.29819276928001E-23   2.50000000000000E-01   2.50000000000000E-01
      0.00000000000000E+00   0.00000000000000E+00  -9.98424961222913E+00   5.00038090078196E-12  -9.98424961222413E+00
      5.69292643041341E-23   9.81190276920696E-01   4.73094837375092E-19   1.88097230793038E-02   9.81190276920696E-01
      4.73094837375092E-19   1.88097230793038E-02   9.81190276920696E-01   4.73094837375092E-19   1.88097230793038E-02
      1.10000000000000E-01
      0.00000000000000E+00   0.00000000000000E+00   0.00000000000000E+00   0.00000000000000E+00   9.98371424738741E+00
      7.59484444495675E-15   9.98371424738741E+00  -8.46756653660427E-24   2.75000000000000E-01   2.75000000000000E-01
      0.00000000000000E+00   0.00000000000000E+00  -9.98371424738698E+00  -4.30055162789715E-13  -9.98371424738741E+00
      1.22477301690169E-23   9.81190276920696E-01   4.73094837375092E-19   1.88097230793038E-02   9.81190276920696E-01
      4.73094837375092E-19   1.88097230793038E-02   9.81190276920696E-01   4.73094837375092E-19   1.88097230793038E-02
      1.20000000000000E-01
      0.00000000000000E+00   0.00000000000000E+00   0.00000000000000E+00   0.00000000000000E+00   9.98317596312490E+00
     -1.87247766456932E-16   9.98317596312490E+00  -4.53997652252756E-23   3.00000000000000E-01   3.00000000000000E-01
      0.00000000000000E+00   0.00000000000000E+00  -9.98317596312303E+00  -1.83901320637066E-12  -9.98317596312487E+00
      2.43215728109428E-22   9.81190276920696E-01   4.73094837375092E-19   1.88097230793038E-02   9.81190276920696E-01
      4.73094837375092E-19   1.88097230793038E-02   9.81190276920696E-01   4.73094837375092E-19   1.88097230793038E-02
      1.30000000000000E-01
      0.00000000000000E+00   0.00000000000000E+00   0.00000000000000E+00   0.00000000000000E+00   9.98263471983280E+00
     -2.11434040154855E-15   9.98263471983280E+00  -4.40389063176071E-24   3.25000000000000E-01   3.25000000000000E-01
      0.00000000000000E+00   0.00000000000000E+00  -9.98263471982668E+00  -6.12356871142791E-12  -9.98263471983280E+00
     -1.21721268963686E-23   9.81190276920696E-01   4.73094837375092E-19   1.88097230793038E-02   9.81190276920696E-01
      4.73094837375092E-19   1.88097230793038E-02   9.81190276920696E-01   4.73094837375092E-19   1.88097230793038E-02
      1.40000000000000E-01
      0.00000000000000E+00   0.00000000000000E+00   0.00000000000000E+00   0.00000000000000E+00   9.98209047586927E+00
     -1.84888857569318E-15   9.98209047586927E+00   5.39051333982040E-23   3.50000000000000E-01   3.50000000000000E-01
      0.00000000000000E+00   0.00000000000000E+00  -9.98209047588018E+00   1.09513665173190E-11  -9.98209047586923E+00