DF-ISE text

Info {
  version   = 1.0
  type      = xyplot
  datasets  = [
    "time"
    "back OuterVoltage" "back InnerVoltage" "back QuasiFermiPotential" "back DisplacementCurrent" "back eCurrent"
    "back hCurrent" "back TotalCurrent" "back Charge" "front OuterVoltage" "front InnerVoltage"
    "front QuasiFermiPotential" "front DisplacementCurrent" "front eCurrent" "front hCurrent" "front TotalCurrent"
    "front Charge" "Stripe0 R_TE" "Stripe0 T_TE" "Stripe0 A_TE" "Stripe0 R_TM"
    "Stripe0 T_TM" "Stripe0 A_TM" "Stripe0 R_Total" "Stripe0 T_Total" "Stripe0 A_Total" ]
  functions = [
    Time
    OuterVoltage InnerVoltage QuasiFermiPotential DisplacementCurrent eCurrent
    hCurrent TotalCurrent Charge OuterVoltage InnerVoltage
    QuasiFermiPotential DisplacementCurrent eCurrent hCurrent TotalCurrent
    Charge R_TE T_TE A_TE R_TM
    T_TM A_TM R_Total T_Total A_Total ]
}

Data {
      0.00000000000000E+00
      0.00000000000000E+00   0.00000000000000E+00   0.00000000000000E+00   0.00000000000000E+00   8.76590195315643E+01
     -8.76590195315643E+01   1.35011399478299E-17   1.77100666178531E-23   0.00000000000000E+00   0.00000000000000E+00
      0.00000000000000E+00   0.00000000000000E+00   6.48534725381894E+01  -6.48534725381894E+01   2.70022798956597E-16
      2.85780370610394E-22   9.81190276920696E-01   4.73094837375092E-19   1.88097230793038E-02   9.81190276920696E-01
      4.73094837375092E-19   1.88097230793038E-02   9.81190276920696E-01   4.73094837375092E-19   1.88097230793038E-02
      1.00000000000000E-10
      0.00000000000000E+00   0.00000000000000E+00   0.00000000000000E+00   5.34700006356537E+01   2.53696281606271E+01
      2.71604963794234E-18   7.88396287962808E+01  -2.00159664336248E-23   0.00000000000000E+00   0.00000000000000E+00
      0.00000000000000E+00  -7.88947673556916E+01  -2.53184630615648E+01  -6.70442349948388E-18  -1.04213230417256E+02
     -2.08513825963880E-22   9.81190276920696E-01   4.73094837375092E-19   1.88097230793038E-02   9.81190276920696E-01
      4.73094837375092E-19   1.88097230793038E-02   9.81190276920696E-01   4.73094837375092E-19   1.88097230793038E-02
      3.00000000000000E-10
      0.00000000000000E+00   0.00000000000000E+00   0.00000000000000E+00   5.21991580190406E+01   4.78314586992070E+01
      2.55783315417871E-18   1.00030616718248E+02  -4.02776435033565E-23   0.00000000000000E+00   0.00000000000000E+00
      0.00000000000000E+00  -6.66418521067876E+01  -4.78104822789791E+01  -8.41843540692322E-18  -1.14452334385767E+02
      7.86274035541826E-23   9.81190276920696E-01   4.73094837375092E-19   1.88097230793038E-02   9.81190276920696E-01
      4.73094837375092E-19   1.88097230793038E-02   9.81190276920696E-01   4.73094837375092E-19   1.88097230793038E-02
      7.00000000000000E-10
      0.00000000000000E+00   0.00000000000000E+00   0.00000000000000E+00   3.64621779922669E+01   6.74312718784870E+01
      6.98789469956038E-18   1.03893449870754E+02  -7.03110435628748E-24   0.00000000000000E+00   0.00000000000000E+00
      0.00000000000000E+00  -4.80693634453780E+01  -6.74222310584595E+01  -1.86563603771282E-18  -1.15491594503838E+02
      9.07239271779029E-25   9.81190276920696E-01   4.73094837375092E-19   1.88097230793038E-02   9.81190276920696E-01
      4.73094837375092E-19   1.88097230793038E-02   9.81190276920696E-01   4.73094837375092E-19   1.88097230793038E-02
      1.50000000000000E-09
      0.00000000000000E+00   0.00000000000000E+00   0.00000000000000E+00   2.09867584196347E+01   8.32701806382933E+01
      4.29821447557865E-18   1.04256939057928E+02  -8.42976490028015E-24   0.00000000000000E+00   0.00000000000000E+00
      0.00000000000000E+00  -3.22864315025295E+01  -8.32665354778861E+01  -2.13460406011099E-17  -1.15552966980416E+02
      8.21051540960022E-23   9.81190276920696E-01   4.73094837375092E-19   1.88097230793038E-02   9.81190276920696E-01
      4.73094837375092E-19   1.88097230793038E-02   9.81190276920696E-01   4.73094837375092E-19   1.88097230793038E-02
      3.10000000000000E-09
      0.00000000000000E+00   0.00000000000000E+00   0.00000000000000E+00   1.09915716602497E+01   9.32834215949884E+01
     -1.08773832587497E-19   1.04274993255238E+02  -4.55131701342480E-23   0.00000000000000E+00   0.00000000000000E+00
      0.00000000000000E+00  -2.22717442504914E+01  -9.32822690759709E+01   1.22387042544659E-17  -1.15554013326462E+02
     -1.10683191157042E-22   9.81190276920696E-01   4.73094837375092E-19   1.88097230793038E-02   9.81190276920696E-01
      4.73094837375092E-19   1.88097230793038E-02   9.81190276920696E-01   4.73094837375092E-19   1.88097230793038E-02
      6.30000000000000E-09
      0.00000000000000E+00   0.00000000000000E+00   0.00000000000000E+00   6.47125035876842E+00   9.78045794272187E+01
      8.14814891382701E-18   1.04275829785987E+02   9.82842544427282E-24   0.00000000000000E+00   0.00000000000000E+00
      0.00000000000000E+00  -1.77481384129843E+01  -9.78043185105739E+01   2.63924871978207E-17  -1.15552456923558E+02
      1.37749162765116E-22   9.81190276920696E-01   4.73094837375092E-19   1.88097230793038E-02   9.81190276920696E-01
      4.73094837375092E-19   1.88097230793038E-02   9.81190276920696E-01   4.73094837375092E-19   1.88097230793038E-02
      1.27000000000000E-08
      0.00000000000000E+00   0.00000000000000E+00   0.00000000000000E+00   4.71264286870446E+00   9.95635630933061E+01
      5.22114396419983E-18   1.04276205962011E+02  -5.42453481251211E-24   0.00000000000000E+00   0.00000000000000E+00
      0.00000000000000E+00  -1.59860000181460E+01  -9.95635116461299E+01   3.82785005405635E-17  -1.15549511664276E+02
     -1.87193703077073E-22   9.81190276920696E-01   4.73094837375092E-19   1.88097230793038E-02   9.81190276920696E-01
      4.73094837375092E-19   1.88097230793038E-02   9.81190276920696E-01   4.73094837375092E-19   1.88097230793038E-02
      2.55000000000000E-08
      0.00000000000000E+00   0.00000000000000E+00   0.00000000000000E+00   3.72396636972317E+00   1.00552723244966E+02
      1.20244527660360E-17   1.04276689614690E+02  -1.97135533430318E-23   0.00000000000000E+00   0.00000000000000E+00
      0.00000000000000E+00  -1.49912521967460E+01  -1.00552708274919E+02   1.36329870176329E-17  -1.15543960471665E+02
      3.05286014953643E-22   9.81190276920696E-01   4.73094837375092E-19   1.88097230793038E-02   9.81190276920696E-01
      4.73094837375092E-19   1.88097230793038E-02   9.81190276920696E-01   4.73094837375092E-19   1.88097230793038E-02
      5.11000000000000E-08
      0.00000000000000E+00   0.00000000000000E+00   0.00000000000000E+00   2.77788152515721E+00   1.01499376322311E+02
      4.32458388953926E-18   1.04277257847469E+02  -1.60656954377536E-23   0.00000000000000E+00   0.00000000000000E+00
      0.00000000000000E+00  -1.40341885466660E+01  -1.01499368941070E+02  -3.93596465129484E-17  -1.15533557487736E+02
     -3.94649083223878E-22   9.81190276920696E-01   4.73094837375092E-19   1.88097230793038E-02   9.81190276920696E-01
      4.73094837375092E-19   1.88097230793038E-02   9.81190276920696E-01   4.73094837375092E-19   1.88097230793038E-02
      1.02300000000000E-07
      0.00000000000000E+00   0.00000000000000E+00   0.00000000000000E+00   1.85531057999718E+00   1.02422341120727E+02
      6.17044286678162E-18   1.04277651700725E+02  -4.24134359556696E-23   0.00000000000000E+00   0.00000000000000E+00
      0.00000000000000E+00  -1.30917804631403E+01  -1.02422337414084E+02   3.85092329127188E-17  -1.15514117877225E+02
     -1.26711084958471E-22   9.81190276920696E-01   4.73094837375092E-19   1.88097230793038E-02   9.81190276920696E-01
      4.73094837375092E-19   1.88097230793038E-02   9.81190276920696E-01   4.73094837375092E-19   1.88097230793038E-02
      2.04700000000000E-07
      0.00000000000000E+00   0.00000000000000E+00   0.00000000000000E+00   1.25810428523845E+00   1.03019427864017E+02
      3.08522143339081E-18   1.04277532149256E+02   1.79935788902841E-23   0.00000000000000E+00   0.00000000000000E+00
      0.00000000000000E+00  -1.24575806986322E+01  -1.03019426526282E+02  -6.29371987704745E-17  -1.15477007224914E+02
     -1.67234439097934E-22   9.81190276920696E-01   4.73094837375092E-19   1.88097230793038E-02   9.81190276920696E-01
      4.73094837375092E-19   1.88097230793038E-02   9.81190276920696E-01   4.73094837375092E-19   1.88097230793038E-02
      4.09500000000000E-07
      0.00000000000000E+00   0.00000000000000E+00   0.00000000000000E+00   1.18746138831315E+00   1.03089057228110E+02
      1.71071573069426E-18   1.04276518616423E+02   3.86332723232570E-23   0.00000000000000E+00   0.00000000000000E+00
      0.00000000000000E+00  -1.23143988787991E+01  -1.03089056917357E+02  -9.67757492354211E-18  -1.15403455796156E+02
     -5.74584872126719E-24   9.81190276920696E-01   4.73094837375092E-19   1.88097230793038E-02   9.81190276920696E-01
      4.73094837375092E-19   1.88097230793038E-02   9.81190276920696E-01   4.73094837375092E-19   1.88097230793038E-02
      8.19100000000000E-07
      0.00000000000000E+00   0.00000000000000E+00   0.00000000000000E+00   1.60126371861105E+00   1.02672085446271E+02
      1.58216483763631E-19   1.04273349164882E+02   2.97498877870873E-23   0.00000000000000E+00   0.00000000000000E+00
      0.00000000000000E+00  -1.25804404028047E+01  -1.02672085308808E+02   8.84199411866544E-17  -1.15252525711613E+02
     -2.12898815777479E-22   9.81190276920696E-01   4.73094837375092E-19   1.88097230793038E-02   9.81190276920696E-01
      4.73094837375092E-19   1.88097230793038E-02   9.81190276920696E-01   4.73094837375092E-19   1.88097230793038E-02
      1.63830000000000E-06
      0.00000000000000E+00   0.00000000000000E+00   0.00000000000000E+00   1.50313183793671E+00   1.02764265751616E+02
      2.53146374021810E-18   1.04267397589553E+02  -2.86914419700118E-23   0.00000000000000E+00   0.00000000000000E+00
      0.00000000000000E+00  -1.21766643938204E+01  -1.02764265445523E+02   1.91837486563403E-18  -1.14940929839344E+02
      5.97265853921194E-24   9.81190276920696E-01   4.73094837375092E-19   1.88097230793038E-02   9.81190276920696E-01
      4.73094837375092E-19   1.88097230793038E-02   9.81190276920696E-01   4.73094837375092E-19   1.88097230793038E-02
      3.27670000000000E-06
      0.00000000000000E+00   0.00000000000000E+00   0.00000000000000E+00   8.64126977970076E-01   1.03396426758160E+02
      9.30510695134857E-18   1.04260553736130E+02   4.05233541394633E-23   0.00000000000000E+00   0.00000000000000E+00
      0.00000000000000E+00  -9.89760663891022E+00  -1.03396426537499E+02   6.00794135324939E-17  -1.13294033176409E+02
     -9.23871991761645E-23   9.81190276920696E-01   4.73094837375092E-19   1.88097230793038E-02   9.81190276920696E-01
      4.73094837375092E-19   1.88097230793038E-02   9.81190276920696E-01   4.73094837375092E-19   1.88097230793038E-02
      6.55350000000000E-06
      0.00000000000000E+00   0.00000000000000E+00   0.00000000000000E+00   2.00330183334483E+00   1.02224470130265E+02
      4.03452033597260E-18   1.04227771963610E+02  -4.73654503141302E-23   0.00000000000000E+00   0.00000000000000E+00
      0.00000000000000E+00  -2.48385828631986E+00  -1.02224469930156E+02  -6.94562123280479E-17  -1.04708328216476E+02
     -1.01383988621307E-22   9.81190276920696E-01   4.73094837375092E-19   1.88097230793038E-02   9.81190276920696E-01
      4.73094837375092E-19   1.88097230793038E-02   9.81190276920696E-01   4.73094837375092E-19   1.88097230793038E-02
      1.31071000000000E-05
      0.00000000000000E+00   0.00000000000000E+00   0.00000000000000E+00   2.49775594939933E+00   1.01643586565406E+02
     -2.90063553566657E-19   1.04141342514805E+02  -1.03954499891347E-23   0.00000000000000E+00   0.00000000000000E+00
      0.00000000000000E+00  -1.56272492389313E-01  -1.01643586423572E+02  -2.66957354583677E-17  -1.01799858915961E+02
     -1.21872475508983E-22   9.81190276920696E-01   4.73094837375092E-19   1.88097230793038E-02   9.81190276920696E-01
      4.73094837375092E-19   1.88097230793038E-02   9.81190276920696E-01   4.73094837375092E-19   1.88097230793038E-02
      2.62143000000000E-05
      0.00000000000000E+00   0.00000000000000E+00   0.00000000000000E+00   2.69231899042013E+00   1.01112575974119E+02
      2.76878846586355E-18   1.03804894964539E+02   3.61383643258647E-23   0.00000000000000E+00   0.00000000000000E+00
      0.00000000000000E+00  -1.53833353234619E-02  -1.01112575943335E+02  -1.60424922182832E-17  -1.01127959278658E+02
      1.25501432596099E-23   9.81190276920696E-01   4.73094837375092E-19   1.88097230793038E-02   9.81190276920696E-01
      4.73094837375092E-19   1.88097230793038E-02   9.81190276920696E-01   4.73094837375092E-19   1.88097230793038E-02
      3.27679000000000E-05
      0.00000000000000E+00   0.00000000000000E+00   0.00000000000000E+00   1.03517429273367E+00   1.00040295783767E+02
     -3.05885201943021E-18   1.01075470076501E+02  -5.19772499456736E-24   0.00000000000000E+00   0.00000000000000E+00
      0.00000000000000E+00  -4.46091004898647E-02  -1.00040295800524E+02   1.01291511376175E-16  -1.00084904901014E+02
     -5.36783235802592E-24   9.81190276920696E-01   4.73094837375092E-19   1.88097230793038E-02   9.81190276920696E-01
      4.73094837375092E-19   1.88097230793038E-02   9.81190276920696E-01   4.73094837375092E-19   1.88097230793038E-02
      4.58751000000000E-05
      0.00000000000000E+00   0.00000000000000E+00   0.00000000000000E+00   6.67750343029698E-02   9.96826341849368E+01
      5.28047514561119E-18   9.97494092192398E+01   8.20295508233539E-24   0.00000000000000E+00   0.00000000000000E+00
      0.00000000000000E+00  -8.02300548944249E-03  -9.96826341874785E+01  -6.50273868489456E-17  -9.96906571929679E+01
     -4.83860944948816E-24   9.81190276920696E-01   4.73094837375092E-19   1.88097230793038E-02   9.81190276920696E-01
      4.73094837375092E-19   1.88097230793038E-02   9.81190276920696E-01   4.73094837375092E-19   1.88097230793038E-02
      7.20895000000000E-05
      0.00000000000000E+00   0.00000000000000E+00   0.00000000000000E+00   1.85193361111663E-03   9.96590160218312E+01
      1.06005044121633E-17   9.96608679554423E+01   1.90142230710355E-23   0.00000000000000E+00   0.00000000000000E+00
      0.00000000000000E+00  -3.14954817356517E-04  -9.96590160219316E+01   3.78994402148798E-17  -9.96593309767490E+01
     -1.90747056891541E-22   9.81190276920696E-01   4.73094837375092E-19   1.88097230793038E-02   9.81190276920696E-01
      4.73094837375092E-19   1.88097230793038E-02   9.81190276920696E-01   4.73094837375092E-19   1.88097230793038E-02
      1.24518300000000E-04
      0.00000000000000E+00   0.00000000000000E+00   0.00000000000000E+00   2.60584322958083E-05   9.96583260190964E+01
     -6.79012409485584E-19   9.96583520775287E+01   1.82203887082288E-23   0.00000000000000E+00   0.00000000000000E+00
      0.00000000000000E+00  -5.02706678280577E-06  -9.96583260191038E+01   1.54879104809242E-18  -9.96583310461706E+01
      1.34573825313889E-23   9.81190276920696E-01   4.73094837375092E-19   1.88097230793038E-02   9.81190276920696E-01
      4.73094837375092E-19   1.88097230793038E-02   9.81190276920696E-01   4.73094837375092E-19   1.88097230793038E-02
      2.29375900000000E-04
      0.00000000000000E+00   0.00000000000000E+00   0.00000000000000E+00   1.85694369470581E-07   9.96583160158610E+01
      1.42394835387268E-18   9.96583162015554E+01  -2.46277660651682E-23   0.00000000000000E+00   0.00000000000000E+00
      0.00000000000000E+00  -3.76900924940545E-08  -9.96583160158261E+01   1.99814234286486E-17  -9.96583160535162E+01
      2.94852763328185E-24   9.81190276920696E-01   4.73094837375092E-19   1.88097230793038E-02   9.81190276920696E-01
      4.73094837375092E-19   1.88097230793038E-02   9.81190276920696E-01   4.73094837375092E-19   1.88097230793038E-02
      4.39091100000000E-04
      0.00000000000000E+00   0.00000000000000E+00   0.00000000000000E+00   6.11241321213765E-10   9.96583159435254E+01
     -3.26980733111505E-18   9.96583159441366E+01  -3.36623571466344E-23   0.00000000000000E+00   0.00000000000000E+00
      0.00000000000000E+00  -1.33283253564976E-10  -9.96583159434754E+01   3.57107788561496E-17  -9.96583159436087E+01
      5.47367693973348E-23   9.81190276920696E-01   4.73094837375092E-19   1.88097230793038E-02   9.81190276920696E-01
      4.73094837375092E-19   1.88097230793038E-02   9.81190276920696E-01   4.73094837375092E-19   1.88097230793038E-02
      8.58521500000000E-04
      0.00000000000000E+00   0.00000000000000E+00   0.00000000000000E+00   3.02235303769524E-11   9.96583159431799E+01
      8.33273481155125E-18   9.96583159432101E+01   1.71997445274774E-23   0.00000000000000E+00   0.00000000000000E+00
      0.00000000000000E+00   9.54204541781832E-12  -9.96583159432185E+01   2.06278860927766E-17  -9.96583159432090E+01
     -1.87420512895018E-22   9.81190276920696E-01   4.73094837375092E-19   1.88097230793038E-02   9.81190276920696E-01
      4.73094837375092E-19   1.88097230793038E-02   9.81190276920696E-01   4.73094837375092E-19   1.88097230793038E-02
      1.69738230000000E-03
      0.00000000000000E+00   0.00000000000000E+00   0.00000000000000E+00   2.85500708309889E-11   9.96583159431798E+01
      5.37936044796346E-18   9.96583159432084E+01  -2.98632926960597E-24   0.00000000000000E+00   0.00000000000000E+00
      0.00000000000000E+00   1.02694665864975E-11  -9.96583159432185E+01   9.80983401543827E-18  -9.96583159432083E+01
     -5.24686712178872E-23   9.81190276920696E-01   4.73094837375092E-19   1.88097230793038E-02   9.81190276920696E-01
      4.73094837375092E-19   1.88097230793038E-02   9.81190276920696E-01   4.73094837375092E-19   1.88097230793038E-02
      3.37510390000000E-03
      0.00000000000000E+00   0.00000000000000E+00   0.00000000000000E+00   2.84920361809231E-11   9.96583159431798E+01
      5.69579341549073E-18   9.96583159432083E+01  -5.70804708494306E-24   0.00000000000000E+00   0.00000000000000E+00
      0.00000000000000E+00   4.68406524179017E-12  -9.96583159432131E+01  -4.47814452365047E-17  -9.96583159432084E+01
     -1.19831187147480E-22   9.81190276920696E-01   4.73094837375092E-19   1.88097230793038E-02   9.81190276920696E-01
      4.73094837375092E-19   1.88097230793038E-02   9.81190276920696E-01   4.73094837375092E-19   1.88097230793038E-02
      6.73054710000000E-03
      0.00000000000000E+00   0.00000000000000E+00   0.00000000000000E+00   2.74329865117054E-11   9.96583159431810E+01
      4.74649451290894E-18   9.96583159432084E+01  -4.97847550388742E-23   0.00000000000000E+00   0.00000000000000E+00
      0.00000000000000E+00   9.69698449985961E-12  -9.96583159432180E+01   9.48886880488653E-19  -9.96583159432083E+01
     -1.01837608257196E-22   9.81190276920696E-01   4.73094837375092E-19   1.88097230793038E-02   9.81190276920696E-01
      4.73094837375092E-19   1.88097230793038E-02   9.81190276920696E-01   4.73094837375092E-19   1.88097230793038E-02
      1.34414335000000E-02
      0.00000000000000E+00   0.00000000000000E+00   0.00000000000000E+00   2.85618100721735E-11   9.96583159431798E+01
      6.43413700638767E-18   9.96583159432084E+01  -4.37364932270140E-23   0.00000000000000E+00   0.00000000000000E+00
      0.00000000000000E+00   5.33228197296538E-12  -9.96583159432137E+01   1.89002774562638E-17  -9.96583159432083E+01
     -1.10229571521152E-22   9.81190276920696E-01   4.73094837375092E-19   1.88097230793038E-02   9.81190276920696E-01
      4.73094837375092E-19   1.88097230793038E-02   9.81190276920696E-01   4.73094837375092E-19   1.88097230793038E-02
      2.68632063000000E-02
      0.00000000000000E+00   0.00000000000000E+00   0.00000000000000E+00   2.93658299583467E-11   9.96583159431790E+01
      6.32865935054525E-19   9.96583159432083E+01  -4.49839472257102E-24   0.00000000000000E+00   0.00000000000000E+00
      0.00000000000000E+00   9.49192243576200E-12  -9.96583159432180E+01   2.46422173461856E-17  -9.96583159432085E+01
     -6.47164013869041E-23   9.81190276920696E-01   4.73094837375092E-19   1.88097230793038E-02   9.81190276920696E-01
      4.73094837375092E-19   1.88097230793038E-02   9.81190276920696E-01   4.73094837375092E-19   1.88097230793038E-02
      5.37067519000000E-02
      0.00000000000000E+00   0.00000000000000E+00   0.00000000000000E+00   2.84952021982409E-11   9.96583159431798E+01
      7.64713004857551E-18   9.96583159432083E+01  -3.58737528715958E-23   0.00000000000000E+00   0.00000000000000E+00
      0.00000000000000E+00   5.32783334735257E-12  -9.96583159432137E+01  -6.86725463069061E-17  -9.96583159432083E+01
      1.05844581707553E-24   9.81190276920696E-01   4.73094837375092E-19   1.88097230793038E-02   9.81190276920696E-01
      4.73094837375092E-19   1.88097230793038E-02   9.81190276920696E-01   4.73094837375092E-19   1.88097230793038E-02
      1.00000000000000E-01
      0.00000000000000E+00   0.00000000000000E+00   0.00000000000000E+00   2.85399044726082E-11   9.96583159431798E+01
      1.09169373796906E-17   9.96583159432084E+01  -4.92555321303365E-23   0.00000000000000E+00   0.00000000000000E+00
      0.00000000000000E+00   9.67540967822298E-12  -9.96583159432180E+01   8.09541008590580E-18  -9.96583159432084E+01
     -7.92322297353686E-23   9.81190276920696E-01   4.73094837375092E-19   1.88097230793038E-02   9.81190276920696E-01
      4.73094837375092E-19   1.88097230793038E-02   9.81190276920696E-01   4.73094837375092E-19   1.88097230793038E-02
      5.00000000000000E-02
      0.00000000000000E+00   0.00000000000000E+00   0.00000000000000E+00   0.00000000000000E+00   9.96317332803569E+01
      4.51880451188935E-15   9.96317332803569E+01  -5.43587530340935E-23   1.25000000000000E-01   1.25000000000000E-01
      0.00000000000000E+00   0.00000000000000E+00  -9.96317332803652E+01   8.20529917865893E-12  -9.96317332803570E+01
     -1.20587219873963E-22   9.81190276920696E-01   4.73094837375092E-19   1.88097230793038E-02   9.81190276920696E-01
      4.73094837375092E-19   1.88097230793038E-02   9.81190276920696E-01   4.73094837375092E-19   1.88097230793038E-02
      1.36666666666667E-01
      0.00000000000000E+00   0.00000000000000E+00   0.00000000000000E+00   0.00000000000000E+00   9.95838819216088E+01
     -7.44070862800352E-15   9.95838819216087E+01  -6.06338246638985E-23   3.41666666666667E-01   3.41666666666667E-01
      0.00000000000000E+00   0.00000000000000E+00  -9.95838819216067E+01  -1.67555517685386E-12  -9.95838819216084E+01
      1.09019919158780E-22   9.81190276920696E-01   4.73094837375092E-19   1.88097230793038E-02   9.81190276920696E-01
      4.73094837375092E-19   1.88097230793038E-02   9.81190276920696E-01   4.73094837375092E-19   1.88097230793038E-02
      2.36666666666667E-01
      0.00000000000000E+00   0.00000000000000E+00   0.00000000000000E+00   0.00000000000000E+00   9.95253313297927E+01
     -1.84323587978863E-14   9.95253313297927E+01   2.99010943323838E-23   5.91666666666667E-01   5.91666666666667E-01
      0.00000000000000E+00   0.00000000000000E+00  -9.95253313297927E+01  -3.35328175463692E-13  -9.95253313297930E+01
      1.97324541611939E-22   9.81190276920696E-01   4.73094837375092E-19   1.88097230793038E-02   9.81190276920696E-01
      4.73094837375092E-19   1.88097230793038E-02   9.81190276920696E-01   4.73094837375092E-19   1.88097230793038E-02
      3.36666666666667E-01
      0.00000000000000E+00   0.00000000000000E+00   0.00000000000000E+00   0.00000000000000E+00   9.94623986384063E+01
     -3.33577009051983E-14   9.94623986384062E+01   1.15294990788585E-24   8.41666666666667E-01   8.41666666666667E-01
      0.00000000000000E+00   0.00000000000000E+00  -9.94623986384081E+01   2.57400311243588E-12  -9.94623986384056E+01
      1.02064418075141E-23   9.81190276920696E-01   4.73094837375092E-19   1.88097230793038E-02   9.81190276920696E-01
      4.73094837375092E-19   1.88097230793038E-02   9.81190276920696E-01   4.73094837375092E-19   1.88097230793038E-02
      4.36666666666667E-01
      0.00000000000000E+00   0.00000000000000E+00   0.00000000000000E+00   0.00000000000000E+00   9.93945062807581E+01
      2.32493766603445E-14   9.93945062807581E+01  -4.64771118605132E-23   1.09166666666667E+00   1.09166666666667E+00
      0.00000000000000E+00   0.00000000000000E+00  -9.93945062807809E+01   2.31249013905346E-11  -9.93945062807577E+01
      9.40504711744261E-23   9.81190276920696E-01   4.73094837375092E-19   1.88097230793038E-02   9.81190276920696E-01
      4.73094837375092E-19   1.88097230793038E-02   9.81190276920696E-01   4.73094837375092E-19   1.88097230793038E-02
      5.36666666666667E-01
      0.00000000000000E+00   0.00000000000000E+00   0.00000000000000E+00   0.00000000000000E+00   9.93212383181953E+01
     -1.00864211503827E-14   9.93212383181953E+01  -2.68958642446158E-23   1.34166666666667E+00   1.34166666666667E+00
      0.00000000000000E+00   0.00000000000000E+00  -9.93212383181991E+01   3.57621383041468E-12  -9.93212383181955E+01
      1.99517036518738E-22   9.81190276920696E-01   4.73094837375092E-19   1.88097230793038E-02   9.81190276920696E-01
      4.73094837375092E-19   1.88097230793038E-02   9.81190276920696E-01   4.73094837375092E-19   1.88097230793038E-02
      6.36666666666667E-01
      0.00000000000000E+00   0.00000000000000E+00   0.00000000000000E+00   0.00000000000000E+00   9.92410504780091E+01
     -1.18038478969299E-14   9.92410504780091E+01   2.07908999782694E-23   1.59166666666667E+00   1.59166666666667E+00
      0.00000000000000E+00   0.00000000000000E+00  -9.92410504779921E+01  -1.67169665929497E-11  -9.92410504780089E+01
      8.55073013651735E-23   9.81190276920696E-01   4.73094837375092E-19   1.88097230793038E-02   9.81190276920696E-01
      4.73094837375092E-19   1.88097230793038E-02   9.81190276920696E-01   4.73094837375092E-19   1.88097230793038E-02
      7.36666666666667E-01
      0.00000000000000E+00   0.00000000000000E+00   0.00000000000000E+00   0.00000000000000E+00   9.91512131751141E+01
      4.66761865148765E-15   9.91512131751141E+01   4.61746987699202E-23   1.84166666666667E+00   1.84166666666667E+00
      0.00000000000000E+00   0.00000000000000E+00  -9.91512131751113E+01  -2.77314134619438E-12  -9.91512131751141E+01
     -3.96917181403325E-23   9.81190276920696E-01   4.73094837375092E-19   1.88097230793038E-02   9.81190276920696E-01
      4.73094837375092E-19   1.88097230793038E-02   9.81190276920696E-01   4.73094837375092E-19   1.88097230793038E-02
      8.36666666666667E-01
      0.00000000000000E+00   0.00000000000000E+00   0.00000000000000E+00   0.00000000000000E+00   9.90494896635555E+01
     -1.09592207349764E-14   9.90494896635555E+01  -5.58519176688965E-23   2.09166666666667E+00   2.09166666666667E+00
      0.00000000000000E+00   0.00000000000000E+00  -9.90494896635492E+01  -6.35909775337408E-12  -9.90494896635555E+01
      1.02820450801623E-23   9.81190276920696E-01   4.73094837375092E-19   1.88097230793038E-02   9.81190276920696E-01
      4.73094837375092E-19   1.88097230793038E-02   9.81190276920696E-01   4.73094837375092E-19   1.88097230793038E-02
      9.36666666666667E-01
      0.00000000000000E+00   0.00000000000000E+00   0.00000000000000E+00   0.00000000000000E+00   9.89308287319025E+01
      3.00360315291762E-15   9.89308287319025E+01  -1.44780267121403E-23   2.34166666666667E+00   2.34166666666667E+00
      0.00000000000000E+00   0.00000000000000E+00  -9.89308287319651E+01   6.26545296373258E-11  -9.89308287319025E+01
     -4.17330065018354E-23   9.81190276920696E-01   4.73094837375092E-19   1.88097230793038E-02   9.81190276920696E-01
      4.73094837375092E-19   1.88097230793038E-02   9.81190276920696E-01   4.73094837375092E-19   1.88097230793038E-02
      1.00000000000000E+00
      0.00000000000000E+00   0.00000000000000E+00   0.00000000000000E+00   0.00000000000000E+00   9.88385830066050E+01
     -1.55818679990426E-14   9.88385830066050E+01   6.23726999348083E-24   2.50000000000000E+00   2.50000000000000E+00
      0.00000000000000E+00   0.00000000000000E+00  -9.88385830066877E+01   8.28191207482202E-11  -9.88385830066049E+01
     -5.02761763110879E-23   9.81190276920696E-01   4.73094837375092E-19   1.88097230793038E-02   9.81190276920696E-01
      4.73094837375092E-19   1.88097230793038E-02   9.81190276920696E-01   4.73094837375092E-19   1.88097230793038E-02
      0.00000000000000E+00
      0.00000000000000E+00   0.00000000000000E+00   0.00000000000000E+00   0.00000000000000E+00   9.88385830066050E+01
     -6.86951580793774E-15   9.88385830066050E+01  -2.13579245231313E-24   2.50000000000000E+00   2.50000000000000E+00
      0.00000000000000E+00   0.00000000000000E+00  -9.88385830066882E+01   8.30083020606082E-11  -9.88385830066052E+01
     -3.57603479626234E-23   9.81190276920696E-01   4.73094837375092E-19   1.88097230793038E-02   9.81190276920696E-01
      4.73094837375092E-19   1.88097230793038E-02   9.81190276920696E-01   4.73094837375092E-19   1.88097230793038E-02
      5.00000000000000E-10
      0.00000000000000E+00   0.00000000000000E+00   0.00000000000000E+00   0.00000000000000E+00   9.88385830059375E+01
      1.52467308765754E-14   9.88385830059375E+01   1.12837884427517E-23   2.50000000100000E+00   2.50000000100000E+00
      0.00000000000000E+00   0.00000000000000E+00  -9.88385830059751E+01   3.73296783335348E-11  -9.88385830059377E+01
     -1.44402250758162E-23   9.81190276920696E-01   4.73094837375092E-19   1.88097230793038E-02   9.81190276920696E-01
      4.73094837375092E-19   1.88097230793038E-02   9.81190276920696E-01   4.73094837375092E-19   1.88097230793038E-02
      1.46666666666667E-09
      0.00000000000000E+00   0.00000000000000E+00   0.00000000000000E+00   0.00000000000000E+00   9.88385830046470E+01
      4.04261739414688E-15   9.88385830046470E+01   1.85417026169839E-23   2.50000000293333E+00   2.50000000293333E+00
      0.00000000000000E+00   0.00000000000000E+00  -9.88385830046374E+01  -9.74551929784754E-12  -9.88385830046472E+01