DF-ISE text

Info {
  version   = 1.0
  type      = xyplot
  datasets  = [
    "time"
    "back OuterVoltage" "back InnerVoltage" "back QuasiFermiPotential" "back DisplacementCurrent" "back eCurrent"
    "back hCurrent" "back TotalCurrent" "back Charge" "front OuterVoltage" "front InnerVoltage"
    "front QuasiFermiPotential" "front DisplacementCurrent" "front eCurrent" "front hCurrent" "front TotalCurrent"
    "front Charge" "Stripe0 R_TE" "Stripe0 T_TE" "Stripe0 A_TE" "Stripe0 R_TM"
    "Stripe0 T_TM" "Stripe0 A_TM" "Stripe0 R_Total" "Stripe0 T_Total" "Stripe0 A_Total" ]
  functions = [
    Time
    OuterVoltage InnerVoltage QuasiFermiPotential DisplacementCurrent eCurrent
    hCurrent TotalCurrent Charge OuterVoltage InnerVoltage
    QuasiFermiPotential DisplacementCurrent eCurrent hCurrent TotalCurrent
    Charge R_TE T_TE A_TE R_TM
    T_TM A_TM R_Total T_Total A_Total ]
}

Data {
      0.00000000000000E+00
      0.00000000000000E+00   0.00000000000000E+00   0.00000000000000E+00   0.00000000000000E+00   8.78346896401490E+02
     -8.78346896401490E+02  -1.08009119582639E-16   1.77100666178531E-23   0.00000000000000E+00   0.00000000000000E+00
      0.00000000000000E+00   0.00000000000000E+00   6.49834388436458E+02  -6.49834388436458E+02   1.08009119582639E-15
      2.85780370610394E-22   9.81190276920696E-01   4.73094837375092E-19   1.88097230793038E-02   9.81190276920696E-01
      4.73094837375092E-19   1.88097230793038E-02   9.81190276920696E-01   4.73094837375092E-19   1.88097230793038E-02
      1.00000000000000E-10
      0.00000000000000E+00   0.00000000000000E+00   0.00000000000000E+00   5.35671356688896E+02   2.54160957873496E+02
      0.00000000000000E+00   7.89832314562392E+02   8.58097144557665E-24   0.00000000000000E+00   0.00000000000000E+00
      0.00000000000000E+00  -7.90532857298634E+02  -2.53648318181458E+02   1.36804519627620E-16  -1.04418117548009E+03
      1.58313252925441E-22   9.81190276920696E-01   4.73094837375092E-19   1.88097230793038E-02   9.81190276920696E-01
      4.73094837375092E-19   1.88097230793038E-02   9.81190276920696E-01   4.73094837375092E-19   1.88097230793038E-02
      3.00000000000000E-10
      0.00000000000000E+00   0.00000000000000E+00   0.00000000000000E+00   5.22991709782724E+02   4.79046543030107E+02
      3.43857158046292E-17   1.00203825281283E+03   5.65134463045687E-24   0.00000000000000E+00   0.00000000000000E+00
      0.00000000000000E+00  -6.67896234594327E+02  -4.78836544404474E+02   2.95864824637991E-17  -1.14673277899880E+03
      9.35968515385365E-23   9.81190276920696E-01   4.73094837375092E-19   1.88097230793038E-02   9.81190276920696E-01
      4.73094837375092E-19   1.88097230793038E-02   9.81190276920696E-01   4.73094837375092E-19   1.88097230793038E-02
      7.00000000000000E-10
      0.00000000000000E+00   0.00000000000000E+00   0.00000000000000E+00   3.65634434489765E+02   6.75176618959072E+02
      2.80570564540839E-17   1.04081105344884E+03  -2.49490799739233E-24   0.00000000000000E+00   0.00000000000000E+00
      0.00000000000000E+00  -4.82022337649747E+02  -6.75086160117386E+02  -7.91609807097369E-17  -1.15710849776713E+03
      3.12997548763765E-23   9.81190276920696E-01   4.73094837375092E-19   1.88097230793038E-02   9.81190276920696E-01
      4.73094837375092E-19   1.88097230793038E-02   9.81190276920696E-01   4.73094837375092E-19   1.88097230793038E-02
      1.50000000000000E-09
      0.00000000000000E+00   0.00000000000000E+00   0.00000000000000E+00   2.10863414690356E+02   8.33683143490426E+02
     -2.32050842853326E-18   1.04454655818078E+03  -1.99592639791386E-23   0.00000000000000E+00   0.00000000000000E+00
      0.00000000000000E+00  -3.24020160160900E+02  -8.33646668985771E+02   1.09433067936512E-16  -1.15766682914667E+03
     -6.71357061116482E-23   9.81190276920696E-01   4.73094837375092E-19   1.88097230793038E-02   9.81190276920696E-01
      4.73094837375092E-19   1.88097230793038E-02   9.81190276920696E-01   4.73094837375092E-19   1.88097230793038E-02
      3.10000000000000E-09
      0.00000000000000E+00   0.00000000000000E+00   0.00000000000000E+00   1.10877908795154E+02   9.33911718409817E+02
      9.45079796348091E-17   1.04478962720497E+03   3.28685227838278E-23   0.00000000000000E+00   0.00000000000000E+00
      0.00000000000000E+00  -2.23689743491028E+02  -9.33900182816388E+02   1.82713669333034E-16  -1.15758992630742E+03
      1.16429039878309E-23   9.81190276920696E-01   4.73094837375092E-19   1.88097230793038E-02   9.81190276920696E-01
      4.73094837375092E-19   1.88097230793038E-02   9.81190276920696E-01   4.73094837375092E-19   1.88097230793038E-02
      6.30000000000000E-09
      0.00000000000000E+00   0.00000000000000E+00   0.00000000000000E+00   6.54747395319453E+01   9.79360364887450E+02
      9.07107840244820E-18   1.04483510441940E+03  -1.39866054399267E-23   0.00000000000000E+00   0.00000000000000E+00
      0.00000000000000E+00  -1.78069321633900E+02  -9.79357741588779E+02   4.81953778957982E-16  -1.15742706322268E+03
     -2.47373908105082E-22   9.81190276920696E-01   4.73094837375092E-19   1.88097230793038E-02   9.81190276920696E-01
      4.73094837375092E-19   1.88097230793038E-02   9.81190276920696E-01   4.73094837375092E-19   1.88097230793038E-02
      1.27000000000000E-08
      0.00000000000000E+00   0.00000000000000E+00   0.00000000000000E+00   4.65047414637432E+01   9.98364763647249E+02
      4.55663473239258E-17   1.04486950511099E+03   5.39618358526902E-23   0.00000000000000E+00   0.00000000000000E+00
      0.00000000000000E+00  -1.58766903781352E+02  -9.98364208208881E+02  -2.02464360389527E-16  -1.15713111199023E+03
      1.42134152578715E-22   9.81190276920696E-01   4.73094837375092E-19   1.88097230793038E-02   9.81190276920696E-01
      4.73094837375092E-19   1.88097230793038E-02   9.81190276920696E-01   4.73094837375092E-19   1.88097230793038E-02
      2.55000000000000E-08
      0.00000000000000E+00   0.00000000000000E+00   0.00000000000000E+00   3.35132303799702E+01   1.01138909836919E+03
      5.73271059503557E-17   1.04490232874916E+03  -1.36085890766854E-23   0.00000000000000E+00   0.00000000000000E+00
      0.00000000000000E+00  -1.45199686636353E+02  -1.01138890417086E+03   5.01546253530711E-17  -1.15658859080721E+03
     -1.55742741655400E-22   9.81190276920696E-01   4.73094837375092E-19   1.88097230793038E-02   9.81190276920696E-01
      4.73094837375092E-19   1.88097230793038E-02   9.81190276920696E-01   4.73094837375092E-19   1.88097230793038E-02
      5.11000000000000E-08
      0.00000000000000E+00   0.00000000000000E+00   0.00000000000000E+00   2.38226146866053E+01   1.02108883857728E+03
      7.34651872942461E-17   1.04491145326389E+03   1.31171678044718E-23   0.00000000000000E+00   0.00000000000000E+00
      0.00000000000000E+00  -1.34493364866810E+02  -1.02108876382450E+03  -1.56898013065601E-17  -1.15558212869131E+03
     -5.20150515819977E-23   9.81190276920696E-01   4.73094837375092E-19   1.88097230793038E-02   9.81190276920696E-01
      4.73094837375092E-19   1.88097230793038E-02   9.81190276920696E-01   4.73094837375092E-19   1.88097230793038E-02
      1.02300000000000E-07
      0.00000000000000E+00   0.00000000000000E+00   0.00000000000000E+00   2.07180913874065E+01   1.02415619409455E+03
      3.29090286228353E-17   1.04487428548196E+03   2.98632926960597E-24   0.00000000000000E+00   0.00000000000000E+00
      0.00000000000000E+00  -1.29472073863893E+02  -1.02415617881308E+03  -8.24835268687731E-17  -1.15362825267698E+03
      3.37190596011206E-23   9.81190276920696E-01   4.73094837375092E-19   1.88097230793038E-02   9.81190276920696E-01
      4.73094837375092E-19   1.88097230793038E-02   9.81190276920696E-01   4.73094837375092E-19   1.88097230793038E-02
      2.04700000000000E-07
      0.00000000000000E+00   0.00000000000000E+00   0.00000000000000E+00   1.97027702001430E+01   1.02507682955200E+03
      8.69135884141548E-17   1.04477959975214E+03  -2.83701280612567E-23   0.00000000000000E+00   0.00000000000000E+00
      0.00000000000000E+00  -1.24584946616216E+02  -1.02507682421288E+03  -1.98297992983751E-16  -1.14966177082910E+03
     -3.22069941481555E-23   9.81190276920696E-01   4.73094837375092E-19   1.88097230793038E-02   9.81190276920696E-01
      4.73094837375092E-19   1.88097230793038E-02   9.81190276920696E-01   4.73094837375092E-19   1.88097230793038E-02
      4.09500000000000E-07
      0.00000000000000E+00   0.00000000000000E+00   0.00000000000000E+00   1.36279736746277E+01   1.03101942204235E+03
      4.63837991567046E-17   1.04464739571698E+03  -2.74628887894777E-23   0.00000000000000E+00   0.00000000000000E+00
      0.00000000000000E+00  -9.55587574132541E+01  -1.03101941451834E+03  -3.70991285011755E-16  -1.12657817193159E+03
      1.18167915149219E-22   9.81190276920696E-01   4.73094837375092E-19   1.88097230793038E-02   9.81190276920696E-01
      4.73094837375092E-19   1.88097230793038E-02   9.81190276920696E-01   4.73094837375092E-19   1.88097230793038E-02
      6.14300000000000E-07
      0.00000000000000E+00   0.00000000000000E+00   0.00000000000000E+00   2.07854304811183E+01   1.02364462328911E+03
      4.93371735202924E-17   1.04443005377023E+03  -4.35096834090693E-23   0.00000000000000E+00   0.00000000000000E+00
      0.00000000000000E+00  -3.07503914164843E+01  -1.02364462720393E+03   7.35179261221673E-17  -1.05439501862042E+03
     -5.09566057649222E-23   9.81190276920696E-01   4.73094837375092E-19   1.88097230793038E-02   9.81190276920696E-01
      4.73094837375092E-19   1.88097230793038E-02   9.81190276920696E-01   4.73094837375092E-19   1.88097230793038E-02
      1.02390000000000E-06
      0.00000000000000E+00   0.00000000000000E+00   0.00000000000000E+00   2.47774048388837E+01   1.01912482995340E+03
      3.83938667266412E-17   1.04390223479228E+03  -2.89938550606048E-23   0.00000000000000E+00   0.00000000000000E+00
      0.00000000000000E+00  -2.96310332740155E+00  -1.01912482983656E+03  -2.82877888262392E-16  -1.02208793316396E+03
      2.30589981577170E-23   9.81190276920696E-01   4.73094837375092E-19   1.88097230793038E-02   9.81190276920696E-01
      4.73094837375092E-19   1.88097230793038E-02   9.81190276920696E-01   4.73094837375092E-19   1.88097230793038E-02
      1.84310000000000E-06
      0.00000000000000E+00   0.00000000000000E+00   0.00000000000000E+00   2.67974295522923E+01   1.01587629171046E+03
      6.83495209858887E-17   1.04267372126275E+03  -3.12808540582145E-23   0.00000000000000E+00   0.00000000000000E+00
      0.00000000000000E+00  -2.28977732940795E-01  -1.01587629130626E+03   1.75264309889163E-16  -1.01610526903920E+03
     -3.47775054181961E-23   9.81190276920696E-01   4.73094837375092E-19   1.88097230793038E-02   9.81190276920696E-01
      4.73094837375092E-19   1.88097230793038E-02   9.81190276920696E-01   4.73094837375092E-19   1.88097230793038E-02
      2.66230000000000E-06
      0.00000000000000E+00   0.00000000000000E+00   0.00000000000000E+00   2.84207152023772E+01   1.01111625838029E+03
      9.62219915422484E-17   1.03953697358267E+03   1.32305727134442E-24   0.00000000000000E+00   0.00000000000000E+00
      0.00000000000000E+00  -1.72332125319171E-01  -1.01111625874747E+03   1.23632997354298E-16  -1.01128859087279E+03
     -3.47019021455479E-23   9.81190276920696E-01   4.73094837375092E-19   1.88097230793038E-02   9.81190276920696E-01
      4.73094837375092E-19   1.88097230793038E-02   9.81190276920696E-01   4.73094837375092E-19   1.88097230793038E-02
      3.48150000000000E-06
      0.00000000000000E+00   0.00000000000000E+00   0.00000000000000E+00   8.34722373843214E+00   1.00120986179125E+03
      7.29905378429552E-17   1.00955708552968E+03  -1.13782925335620E-22   0.00000000000000E+00   0.00000000000000E+00
      0.00000000000000E+00  -3.29769399784065E-01  -1.00120986352926E+03  -2.12933017731887E-16  -1.00153963292905E+03
     -4.83860944948816E-23   9.81190276920696E-01   4.73094837375092E-19   1.88097230793038E-02   9.81190276920696E-01
      4.73094837375092E-19   1.88097230793038E-02   9.81190276920696E-01   4.73094837375092E-19   1.88097230793038E-02
      5.11990000000000E-06
      0.00000000000000E+00   0.00000000000000E+00   0.00000000000000E+00   4.50571487534208E-01   9.98563094618808E+02
      5.48483810380589E-17   9.99013666106342E+02   3.36623571466344E-23   0.00000000000000E+00   0.00000000000000E+00
      0.00000000000000E+00  -4.76766104395087E-02  -9.98563094848847E+02   3.79007586855779E-16  -9.98610771459286E+02
     -1.14992577697992E-22   9.81190276920696E-01   4.73094837375092E-19   1.88097230793038E-02   9.81190276920696E-01
      4.73094837375092E-19   1.88097230793038E-02   9.81190276920696E-01   4.73094837375092E-19   1.88097230793038E-02
      8.39670000000000E-06
      0.00000000000000E+00   0.00000000000000E+00   0.00000000000000E+00   1.10119696287188E-02   9.98420740281575E+02
      3.79719561032715E-17   9.98431752251204E+02  -3.35867538739862E-23   0.00000000000000E+00   0.00000000000000E+00
      0.00000000000000E+00  -1.53308312077120E-03  -9.98420740287753E+02  -4.27738263854977E-16  -9.98422273370874E+02
      2.26961024490054E-22   9.81190276920696E-01   4.73094837375092E-19   1.88097230793038E-02   9.81190276920696E-01
      4.73094837375092E-19   1.88097230793038E-02   9.81190276920696E-01   4.73094837375092E-19   1.88097230793038E-02
      1.49503000000000E-05
      0.00000000000000E+00   0.00000000000000E+00   0.00000000000000E+00   1.36472119057481E-04   9.98417143354106E+02
      2.40489055320720E-17   9.98417279826225E+02  -4.31694686821522E-23   0.00000000000000E+00   0.00000000000000E+00
      0.00000000000000E+00  -2.08368086992374E-05  -9.98417143354173E+02  -3.55987088468170E-18  -9.98417164190982E+02
      6.37335588424768E-23   9.81190276920696E-01   4.73094837375092E-19   1.88097230793038E-02   9.81190276920696E-01
      4.73094837375092E-19   1.88097230793038E-02   9.81190276920696E-01   4.73094837375092E-19   1.88097230793038E-02
      2.80575000000000E-05
      0.00000000000000E+00   0.00000000000000E+00   0.00000000000000E+00   8.53889915299794E-07   9.98417097861741E+02
      9.61956221282878E-17   9.98417098715631E+02  -2.28510891579343E-23   0.00000000000000E+00   0.00000000000000E+00
      0.00000000000000E+00  -1.35111292360599E-07  -9.98417097861812E+02  -5.94867609537293E-16  -9.98417097996923E+02
     -1.11892843519414E-23   9.81190276920696E-01   4.73094837375092E-19   1.88097230793038E-02   9.81190276920696E-01
      4.73094837375092E-19   1.88097230793038E-02   9.81190276920696E-01   4.73094837375092E-19   1.88097230793038E-02
      5.42719000000000E-05
      0.00000000000000E+00   0.00000000000000E+00   0.00000000000000E+00   2.69668885474461E-09   9.98417097574280E+02
      1.13072047063075E-16   9.98417097576977E+02   4.22811302285352E-23   0.00000000000000E+00   0.00000000000000E+00
      0.00000000000000E+00  -4.24622084307686E-10  -9.98417097574299E+02  -3.83965036680373E-16  -9.98417097574724E+02
      6.09362377544915E-23   9.81190276920696E-01   4.73094837375092E-19   1.88097230793038E-02   9.81190276920696E-01
      4.73094837375092E-19   1.88097230793038E-02   9.81190276920696E-01   4.73094837375092E-19   1.88097230793038E-02
      1.06700700000000E-04
      0.00000000000000E+00   0.00000000000000E+00   0.00000000000000E+00  -2.18923684482051E-11   9.98417097573410E+02
      4.55663473239258E-17   9.98417097573389E+02  -7.52252562850112E-24   0.00000000000000E+00   0.00000000000000E+00
      0.00000000000000E+00  -6.18244200491025E-13  -9.98417097573384E+02  -4.82336135460410E-16  -9.98417097573385E+02
      1.19453170784239E-23   9.81190276920696E-01   4.73094837375092E-19   1.88097230793038E-02   9.81190276920696E-01
      4.73094837375092E-19   1.88097230793038E-02   9.81190276920696E-01   4.73094837375092E-19   1.88097230793038E-02
      2.11558300000000E-04
      0.00000000000000E+00   0.00000000000000E+00   0.00000000000000E+00  -2.73525534704662E-11   9.98417097573410E+02
      4.05034198434896E-17   9.98417097573383E+02   3.09595401494594E-23   0.00000000000000E+00   0.00000000000000E+00
      0.00000000000000E+00   1.35832268787127E-12  -9.98417097573384E+02  -2.11825502345542E-16  -9.98417097573383E+02
      1.91276279800079E-23   9.81190276920696E-01   4.73094837375092E-19   1.88097230793038E-02   9.81190276920696E-01
      4.73094837375092E-19   1.88097230793038E-02   9.81190276920696E-01   4.73094837375092E-19   1.88097230793038E-02
      4.21273500000000E-04
      0.00000000000000E+00   0.00000000000000E+00   0.00000000000000E+00  -2.21575308367805E-11   9.98417097573405E+02
      3.41747604929444E-17   9.98417097573383E+02  -1.84850001624977E-23   0.00000000000000E+00   0.00000000000000E+00
      0.00000000000000E+00   1.40595470960721E-12  -9.98417097573384E+02  -7.19621306984916E-17  -9.98417097573383E+02
     -9.32188351752953E-23   9.81190276920696E-01   4.73094837375092E-19   1.88097230793038E-02   9.81190276920696E-01
      4.73094837375092E-19   1.88097230793038E-02   9.81190276920696E-01   4.73094837375092E-19   1.88097230793038E-02
      8.40703900000000E-04
      0.00000000000000E+00   0.00000000000000E+00   0.00000000000000E+00  -3.04992911603868E-11   9.98417097573413E+02
      6.75056997391494E-17   9.98417097573383E+02   9.94183035324520E-24   0.00000000000000E+00   0.00000000000000E+00
      0.00000000000000E+00   1.62294503084873E-12  -9.98417097573385E+02  -2.09399516261166E-16  -9.98417097573383E+02
      9.45040908103156E-23   9.81190276920696E-01   4.73094837375092E-19   1.88097230793038E-02   9.81190276920696E-01
      4.73094837375092E-19   1.88097230793038E-02   9.81190276920696E-01   4.73094837375092E-19   1.88097230793038E-02
      1.67956470000000E-03
      0.00000000000000E+00   0.00000000000000E+00   0.00000000000000E+00  -3.03992747156533E-11   9.98417097573413E+02
      5.02073641809923E-17   9.98417097573383E+02  -8.50536817292840E-24   0.00000000000000E+00   0.00000000000000E+00
      0.00000000000000E+00   2.26646336532210E-12  -9.98417097573385E+02  -9.47980431883758E-17  -9.98417097573382E+02
      2.67635585174814E-23   9.81190276920696E-01   4.73094837375092E-19   1.88097230793038E-02   9.81190276920696E-01
      4.73094837375092E-19   1.88097230793038E-02   9.81190276920696E-01   4.73094837375092E-19   1.88097230793038E-02
      3.35728630000000E-03
      0.00000000000000E+00   0.00000000000000E+00   0.00000000000000E+00  -3.03466742744166E-11   9.98417097573413E+02
      4.09253304668593E-17   9.98417097573383E+02  -1.28903579865270E-23   0.00000000000000E+00   0.00000000000000E+00
      0.00000000000000E+00   2.21137871433495E-12  -9.98417097573385E+02  -4.80424352948266E-16  -9.98417097573383E+02
     -4.68740290419165E-24   9.81190276920696E-01   4.73094837375092E-19   1.88097230793038E-02   9.81190276920696E-01
      4.73094837375092E-19   1.88097230793038E-02   9.81190276920696E-01   4.73094837375092E-19   1.88097230793038E-02
      6.71272950000000E-03
      0.00000000000000E+00   0.00000000000000E+00   0.00000000000000E+00  -2.73904646714397E-11   9.98417097573410E+02
      1.09169373796906E-17   9.98417097573383E+02  -1.54986708928918E-24   0.00000000000000E+00   0.00000000000000E+00
      0.00000000000000E+00   1.39526180676853E-12  -9.98417097573385E+02  -4.78420277487260E-16  -9.98417097573383E+02
     -7.10670762893573E-24   9.81190276920696E-01   4.73094837375092E-19   1.88097230793038E-02   9.81190276920696E-01
      4.73094837375092E-19   1.88097230793038E-02   9.81190276920696E-01   4.73094837375092E-19   1.88097230793038E-02
      1.34236159000000E-02
      0.00000000000000E+00   0.00000000000000E+00   0.00000000000000E+00  -3.24326544009161E-11   9.98417097573415E+02
     -4.21910623369683E-18   9.98417097573383E+02  -6.42627817510146E-25   0.00000000000000E+00   0.00000000000000E+00
      0.00000000000000E+00   2.82908286922806E-12  -9.98417097573385E+02   1.07138928921939E-16  -9.98417097573382E+02
     -6.27507162980495E-23   9.81190276920696E-01   4.73094837375092E-19   1.88097230793038E-02   9.81190276920696E-01
      4.73094837375092E-19   1.88097230793038E-02   9.81190276920696E-01   4.73094837375092E-19   1.88097230793038E-02
      2.68453887000000E-02
      0.00000000000000E+00   0.00000000000000E+00   0.00000000000000E+00  -3.45930528108080E-11   9.98417097573418E+02
      1.97770604704539E-17   9.98417097573383E+02  -2.40796423384684E-23   0.00000000000000E+00   0.00000000000000E+00
      0.00000000000000E+00   1.79997197784468E-12  -9.98417097573385E+02  -3.26163281278726E-16  -9.98417097573383E+02
      1.22477301690169E-23   9.81190276920696E-01   4.73094837375092E-19   1.88097230793038E-02   9.81190276920696E-01
      4.73094837375092E-19   1.88097230793038E-02   9.81190276920696E-01   4.73094837375092E-19   1.88097230793038E-02
      5.36889343000000E-02
      0.00000000000000E+00   0.00000000000000E+00   0.00000000000000E+00  -2.22279527827484E-11   9.98417097573405E+02
      4.00815092201199E-17   9.98417097573383E+02   6.01046017553607E-24   0.00000000000000E+00   0.00000000000000E+00
      0.00000000000000E+00   2.16050641901153E-12  -9.98417097573385E+02  -7.48759509411385E-16  -9.98417097573382E+02
     -3.93137017770913E-23   9.81190276920696E-01   4.73094837375092E-19   1.88097230793038E-02   9.81190276920696E-01
      4.73094837375092E-19   1.88097230793038E-02   9.81190276920696E-01   4.73094837375092E-19   1.88097230793038E-02
      1.00000000000000E-01
      0.00000000000000E+00   0.00000000000000E+00   0.00000000000000E+00  -2.43666413596042E-11   9.98417097573407E+02
     -1.51887824413086E-17   9.98417097573383E+02  -1.85228017988219E-24   0.00000000000000E+00   0.00000000000000E+00
      0.00000000000000E+00   4.49069516488738E-12  -9.98417097573387E+02  -2.60767134656425E-16  -9.98417097573383E+02
      1.88252148894149E-23   9.81190276920696E-01   4.73094837375092E-19   1.88097230793038E-02   9.81190276920696E-01
      4.73094837375092E-19   1.88097230793038E-02   9.81190276920696E-01   4.73094837375092E-19   1.88097230793038E-02
      1.00000000000000E-02
      0.00000000000000E+00   0.00000000000000E+00   0.00000000000000E+00   0.00000000000000E+00   9.98367780886086E+02
      3.72952246480935E-14   9.98367780886086E+02   1.12648876245896E-23   2.30000000000000E-02   2.30000000000000E-02
      0.00000000000000E+00   0.00000000000000E+00  -9.98367780886087E+02   8.39721514842670E-13  -9.98367780886086E+02
     -6.81185486560755E-23   9.81190276920696E-01   4.73094837375092E-19   1.88097230793038E-02   9.81190276920696E-01
      4.73094837375092E-19   1.88097230793038E-02   9.81190276920696E-01   4.73094837375092E-19   1.88097230793038E-02
      2.00000000000000E-02
      0.00000000000000E+00   0.00000000000000E+00   0.00000000000000E+00   0.00000000000000E+00   9.98318219009671E+02
     -1.01013709600100E-14   9.98318219009671E+02  -2.35315186117686E-23   4.60000000000000E-02   4.60000000000000E-02
      0.00000000000000E+00   0.00000000000000E+00  -9.98318219009670E+02  -1.77900354725148E-13  -9.98318219009671E+02
      8.63389373643043E-23   9.81190276920696E-01   4.73094837375092E-19   1.88097230793038E-02   9.81190276920696E-01
      4.73094837375092E-19   1.88097230793038E-02   9.81190276920696E-01   4.73094837375092E-19   1.88097230793038E-02
      3.00000000000000E-02
      0.00000000000000E+00   0.00000000000000E+00   0.00000000000000E+00   0.00000000000000E+00   9.98268409389951E+02
     -2.93733582678160E-14   9.98268409389951E+02  -1.37975972583061E-23   6.90000000000000E-02   6.90000000000000E-02
      0.00000000000000E+00   0.00000000000000E+00  -9.98268409389952E+02   1.76098901841016E-13  -9.98268409389952E+02
      4.53619635889515E-23   9.81190276920696E-01   4.73094837375092E-19   1.88097230793038E-02   9.81190276920696E-01
      4.73094837375092E-19   1.88097230793038E-02   9.81190276920696E-01   4.73094837375092E-19   1.88097230793038E-02
      4.00000000000000E-02
      0.00000000000000E+00   0.00000000000000E+00   0.00000000000000E+00   0.00000000000000E+00   9.98218349093937E+02
      1.14538404026950E-13   9.98218349093937E+02  -4.27158490462626E-24   9.20000000000000E-02   9.20000000000000E-02
      0.00000000000000E+00   0.00000000000000E+00  -9.98218349093940E+02   2.00105094196354E-12  -9.98218349093938E+02
     -2.32102047030135E-23   9.81190276920696E-01   4.73094837375092E-19   1.88097230793038E-02   9.81190276920696E-01
      4.73094837375092E-19   1.88097230793038E-02   9.81190276920696E-01   4.73094837375092E-19   1.88097230793038E-02
      5.00000000000000E-02
      0.00000000000000E+00   0.00000000000000E+00   0.00000000000000E+00   0.00000000000000E+00   9.98168034748836E+02
     -7.35375713355680E-15   9.98168034748836E+02   5.15425311279461E-23   1.15000000000000E-01   1.15000000000000E-01
      0.00000000000000E+00   0.00000000000000E+00  -9.98168034748827E+02  -8.69725186486269E-12  -9.98168034748836E+02
      1.46216729301720E-22   9.81190276920696E-01   4.73094837375092E-19   1.88097230793038E-02   9.81190276920696E-01
      4.73094837375092E-19   1.88097230793038E-02   9.81190276920696E-01   4.73094837375092E-19   1.88097230793038E-02
      6.00000000000000E-02
      0.00000000000000E+00   0.00000000000000E+00   0.00000000000000E+00   0.00000000000000E+00   9.98117462493093E+02
     -4.26605433831230E-14   9.98117462493093E+02  -2.01482721607593E-23   1.38000000000000E-01   1.38000000000000E-01
      0.00000000000000E+00   0.00000000000000E+00  -9.98117462493101E+02   8.10156680349262E-12  -9.98117462493093E+02
     -1.52718610749470E-23   9.81190276920696E-01   4.73094837375092E-19   1.88097230793038E-02   9.81190276920696E-01
      4.73094837375092E-19   1.88097230793038E-02   9.81190276920696E-01   4.73094837375092E-19   1.88097230793038E-02
      7.00000000000000E-02
      0.00000000000000E+00   0.00000000000000E+00   0.00000000000000E+00   0.00000000000000E+00   9.98066627943906E+02
     -1.48970200382475E-13   9.98066627943906E+02   7.03110435628748E-24   1.61000000000000E-01   1.61000000000000E-01
      0.00000000000000E+00   0.00000000000000E+00  -9.98066627943891E+02  -1.56981574046724E-11  -9.98066627943907E+02
      1.49014050389706E-22   9.81190276920696E-01   4.73094837375092E-19   1.88097230793038E-02   9.81190276920696E-01
      4.73094837375092E-19   1.88097230793038E-02   9.81190276920696E-01   4.73094837375092E-19   1.88097230793038E-02
      8.00000000000000E-02
      0.00000000000000E+00   0.00000000000000E+00   0.00000000000000E+00   0.00000000000000E+00   9.98015526182971E+02
      4.73385433432692E-14   9.98015526182971E+02  -1.96568508885456E-24   1.84000000000000E-01   1.84000000000000E-01
      0.00000000000000E+00   0.00000000000000E+00  -9.98015526182966E+02  -4.97967831763308E-12  -9.98015526182971E+02
      1.12951289336489E-22   9.81190276920696E-01   4.73094837375092E-19   1.88097230793038E-02   9.81190276920696E-01
      4.73094837375092E-19   1.88097230793038E-02   9.81190276920696E-01   4.73094837375092E-19   1.88097230793038E-02
      9.00000000000000E-02
      0.00000000000000E+00   0.00000000000000E+00   0.00000000000000E+00   0.00000000000000E+00   9.97964151759741E+02
      2.28025419965170E-14   9.97964151759741E+02  -4.53619635889515E-25   2.07000000000000E-01   2.07000000000000E-01
      0.00000000000000E+00   0.00000000000000E+00  -9.97964151759734E+02  -5.90254840914932E-12  -9.97964151759740E+02
     -3.54579348720304E-23   9.81190276920696E-01   4.73094837375092E-19   1.88097230793038E-02   9.81190276920696E-01
      4.73094837375092E-19   1.88097230793038E-02   9.81190276920696E-01   4.73094837375092E-19   1.88097230793038E-02
      1.00000000000000E-01
      0.00000000000000E+00   0.00000000000000E+00   0.00000000000000E+00   0.00000000000000E+00   9.97912498709984E+02
     -3.34040352617038E-14   9.97912498709984E+02  -2.14524286139416E-23   2.30000000000000E-01   2.30000000000000E-01
      0.00000000000000E+00   0.00000000000000E+00  -9.97912498709993E+02   9.08243280840549E-12  -9.97912498709984E+02
     -4.53619635889515E-24   9.81190276920696E-01   4.73094837375092E-19   1.88097230793038E-02   9.81190276920696E-01
      4.73094837375092E-19   1.88097230793038E-02   9.81190276920696E-01   4.73094837375092E-19   1.88097230793038E-02
      1.10000000000000E-01
      0.00000000000000E+00   0.00000000000000E+00   0.00000000000000E+00   0.00000000000000E+00   9.97860560586898E+02
     -1.74704157613104E-14   9.97860560586898E+02  -4.12226844114597E-23   2.53000000000000E-01   2.53000000000000E-01
      0.00000000000000E+00   0.00000000000000E+00  -9.97860560586900E+02   1.80563593019281E-12  -9.97860560586898E+02
     -1.27618324230250E-22   9.81190276920696E-01   4.73094837375092E-19   1.88097230793038E-02   9.81190276920696E-01
      4.73094837375092E-19   1.88097230793038E-02   9.81190276920696E-01   4.73094837375092E-19   1.88097230793038E-02
      1.20000000000000E-01
      0.00000000000000E+00   0.00000000000000E+00   0.00000000000000E+00   0.00000000000000E+00   9.97808330502089E+02
      2.02043636389785E-14   9.97808330502089E+02  -7.14450926525986E-24   2.76000000000000E-01   2.76000000000000E-01
      0.00000000000000E+00   0.00000000000000E+00  -9.97808330502090E+02   5.71134121750311E-13  -9.97808330502089E+02
      2.41174439747925E-23   9.81190276920696E-01   4.73094837375092E-19   1.88097230793038E-02   9.81190276920696E-01
      4.73094837375092E-19   1.88097230793038E-02   9.81190276920696E-01   4.73094837375092E-19   1.88097230793038E-02
      1.30000000000000E-01
      0.00000000000000E+00   0.00000000000000E+00   0.00000000000000E+00   0.00000000000000E+00   9.97755801176204E+02
     -4.06781699498065E-14   9.97755801176204E+02  -1.44024234394921E-23   2.99000000000000E-01   2.99000000000000E-01
      0.00000000000000E+00   0.00000000000000E+00  -9.97755801176203E+02  -8.28814057267298E-13  -9.97755801176204E+02