DF-ISE text

Info {
  version   = 1.0
  type      = xyplot
  datasets  = [
    "time"
    "back OuterVoltage" "back InnerVoltage" "back QuasiFermiPotential" "back DisplacementCurrent" "back eCurrent"
    "back hCurrent" "back TotalCurrent" "back Charge" "front OuterVoltage" "front InnerVoltage"
    "front QuasiFermiPotential" "front DisplacementCurrent" "front eCurrent" "front hCurrent" "front TotalCurrent"
    "front Charge" "Stripe0 R_TE" "Stripe0 T_TE" "Stripe0 A_TE" "Stripe0 R_TM"
    "Stripe0 T_TM" "Stripe0 A_TM" "Stripe0 R_Total" "Stripe0 T_Total" "Stripe0 A_Total" ]
  functions = [
    Time
    OuterVoltage InnerVoltage QuasiFermiPotential DisplacementCurrent eCurrent
    hCurrent TotalCurrent Charge OuterVoltage InnerVoltage
    QuasiFermiPotential DisplacementCurrent eCurrent hCurrent TotalCurrent
    Charge R_TE T_TE A_TE R_TM
    T_TM A_TM R_Total T_Total A_Total ]
}

Data {
      0.00000000000000E+00
      0.00000000000000E+00   0.00000000000000E+00   0.00000000000000E+00   0.00000000000000E+00   8.78346896401490E+03
     -8.78346896401490E+03  -1.72814591332222E-15   1.77100666178531E-23   0.00000000000000E+00   0.00000000000000E+00
      0.00000000000000E+00   0.00000000000000E+00   6.49834388436432E+03  -6.49834388436432E+03   5.61647421829723E-15
      2.85780370610394E-22   9.81190276920696E-01   4.73094837375092E-19   1.88097230793038E-02   9.81190276920696E-01
      4.73094837375092E-19   1.88097230793038E-02   9.81190276920696E-01   4.73094837375092E-19   1.88097230793038E-02
      1.00000000000000E-10
      0.00000000000000E+00   0.00000000000000E+00   0.00000000000000E+00   5.34679324832078E+03   2.53710085238781E+03
     -1.38386684465256E-16   7.88389410070859E+03  -6.65308799304622E-24   0.00000000000000E+00   0.00000000000000E+00
      0.00000000000000E+00  -7.90393132940055E+03  -2.53198396712995E+03  -1.69186159971243E-15  -1.04359152965305E+04
     -1.90520247073596E-23   9.81190276920696E-01   4.73094837375092E-19   1.88097230793038E-02   9.81190276920696E-01
      4.73094837375092E-19   1.88097230793038E-02   9.81190276920696E-01   4.73094837375092E-19   1.88097230793038E-02
      3.00000000000000E-10
      0.00000000000000E+00   0.00000000000000E+00   0.00000000000000E+00   5.22516623973117E+03   4.76767322650213E+03
     -3.64952689214776E-16   9.99283946623331E+03  -1.87307107986045E-23   0.00000000000000E+00   0.00000000000000E+00
      0.00000000000000E+00  -6.69085009600879E+03  -4.76559180017155E+03   6.75056997391494E-17  -1.14564418961803E+04
      2.79732108798534E-23   9.81190276920696E-01   4.73094837375092E-19   1.88097230793038E-02   9.81190276920696E-01
      4.73094837375092E-19   1.88097230793038E-02   9.81190276920696E-01   4.73094837375092E-19   1.88097230793038E-02
      7.00000000000000E-10
      0.00000000000000E+00   0.00000000000000E+00   0.00000000000000E+00   3.68379500853427E+03   6.70283967070944E+03
     -4.08409483421854E-16   1.03866346792437E+04  -5.01627714021155E-23   0.00000000000000E+00   0.00000000000000E+00
      0.00000000000000E+00  -4.85433058839325E+03  -6.70194811419703E+03   7.63658228299127E-17  -1.15562787025903E+04
      5.35271170349627E-23   9.81190276920696E-01   4.73094837375092E-19   1.88097230793038E-02   9.81190276920696E-01
      4.73094837375092E-19   1.88097230793038E-02   9.81190276920696E-01   4.73094837375092E-19   1.88097230793038E-02
      1.50000000000000E-09
      0.00000000000000E+00   0.00000000000000E+00   0.00000000000000E+00   2.16546403701181E+03   8.26753302630706E+03
      9.07951661491559E-16   1.04329970633189E+04  -1.43835226213300E-23   0.00000000000000E+00   0.00000000000000E+00
      0.00000000000000E+00  -3.28883568383679E+03  -8.26717335596954E+03   4.80471817893396E-15  -1.15560090398063E+04
     -3.00901025140045E-23   9.81190276920696E-01   4.73094837375092E-19   1.88097230793038E-02   9.81190276920696E-01
      4.73094837375092E-19   1.88097230793038E-02   9.81190276920696E-01   4.73094837375092E-19   1.88097230793038E-02
      3.10000000000000E-09
      0.00000000000000E+00   0.00000000000000E+00   0.00000000000000E+00   1.18133462935515E+03   9.26024170924250E+03
      2.05892384204406E-16   1.04415763385976E+04  -2.18871474316691E-23   0.00000000000000E+00   0.00000000000000E+00
      0.00000000000000E+00  -2.28598891518446E+03  -9.26012751438911E+03   4.39462105301862E-15  -1.15461164295736E+04
     -1.80994234719916E-22   9.81190276920696E-01   4.73094837375092E-19   1.88097230793038E-02   9.81190276920696E-01
      4.73094837375092E-19   1.88097230793038E-02   9.81190276920696E-01   4.73094837375092E-19   1.88097230793038E-02
      6.30000000000000E-09
      0.00000000000000E+00   0.00000000000000E+00   0.00000000000000E+00   7.30696203236559E+02   9.71416974631342E+03
      5.40045597913195E-17   1.04448659495500E+04  -3.19423826938867E-24   0.00000000000000E+00   0.00000000000000E+00
      0.00000000000000E+00  -1.81485724443195E+03  -9.71414349092367E+03   1.31551732366667E-15  -1.15290007353556E+04
     -3.52311250540856E-23   9.81190276920696E-01   4.73094837375092E-19   1.88097230793038E-02   9.81190276920696E-01
      4.73094837375092E-19   1.88097230793038E-02   9.81190276920696E-01   4.73094837375092E-19   1.88097230793038E-02
      1.27000000000000E-08
      0.00000000000000E+00   0.00000000000000E+00   0.00000000000000E+00   5.82487095037349E+02   9.86220307893356E+03
      1.48217201989770E-15   1.04446901739709E+04  -4.29237580460453E-23   0.00000000000000E+00   0.00000000000000E+00
      0.00000000000000E+00  -1.63458612702752E+03  -9.86219864391200E+03   8.99597831148839E-15  -1.14967847709395E+04
     -1.59447302015164E-22   9.81190276920696E-01   4.73094837375092E-19   1.88097230793038E-02   9.81190276920696E-01
      4.73094837375092E-19   1.88097230793038E-02   9.81190276920696E-01   4.73094837375092E-19   1.88097230793038E-02
      2.55000000000000E-08
      0.00000000000000E+00   0.00000000000000E+00   0.00000000000000E+00   5.60233179600775E+02   9.88108020145519E+03
      1.08009119582639E-16   1.04413133810560E+04  -2.52136914281922E-23   0.00000000000000E+00   0.00000000000000E+00
      0.00000000000000E+00  -1.53202877361659E+03  -9.88107977062104E+03   4.10181508040006E-15  -1.14131085442376E+04
     -3.79528428694227E-23   9.81190276920696E-01   4.73094837375092E-19   1.88097230793038E-02   9.81190276920696E-01
      4.73094837375092E-19   1.88097230793038E-02   9.81190276920696E-01   4.73094837375092E-19   1.88097230793038E-02
      5.11000000000000E-08
      0.00000000000000E+00   0.00000000000000E+00   0.00000000000000E+00   5.77902924827722E+02   9.85531669791035E+03
     -1.38386684465256E-16   1.04332196227381E+04  -5.57574135780862E-24   0.00000000000000E+00   0.00000000000000E+00
      0.00000000000000E+00  -6.11833408329473E+02  -9.85531675614671E+03  -9.90013277736962E-16  -1.04671501644762E+04
      5.06163910380050E-23   9.81190276920696E-01   4.73094837375092E-19   1.88097230793038E-02   9.81190276920696E-01
      4.73094837375092E-19   1.88097230793038E-02   9.81190276920696E-01   4.73094837375092E-19   1.88097230793038E-02
