DF-ISE text

Info {
  version   = 1.0
  type      = xyplot
  datasets  = [
    "time"
    "back OuterVoltage" "back InnerVoltage" "back QuasiFermiPotential" "back DisplacementCurrent" "back eCurrent"
    "back hCurrent" "back TotalCurrent" "back Charge" "front OuterVoltage" "front InnerVoltage"
    "front QuasiFermiPotential" "front DisplacementCurrent" "front eCurrent" "front hCurrent" "front TotalCurrent"
    "front Charge" "Stripe0 R_TE" "Stripe0 T_TE" "Stripe0 A_TE" "Stripe0 R_TM"
    "Stripe0 T_TM" "Stripe0 A_TM" "Stripe0 R_Total" "Stripe0 T_Total" "Stripe0 A_Total" ]
  functions = [
    Time
    OuterVoltage InnerVoltage QuasiFermiPotential DisplacementCurrent eCurrent
    hCurrent TotalCurrent Charge OuterVoltage InnerVoltage
    QuasiFermiPotential DisplacementCurrent eCurrent hCurrent TotalCurrent
    Charge R_TE T_TE A_TE R_TM
    T_TM A_TM R_Total T_Total A_Total ]
}

Data {
      0.00000000000000E+00
      0.00000000000000E+00   0.00000000000000E+00   0.00000000000000E+00   0.00000000000000E+00   5.51537692271006E+03
     -5.51537692271006E+03  -3.88832830497500E-15   1.19878439192885E-22   0.00000000000000E+00   0.00000000000000E+00
      0.00000000000000E+00   0.00000000000000E+00   6.25489226542034E+03  -6.25489226542034E+03   9.07276604494167E-15
      1.09322332249373E-22   9.63034147047597E-01   8.51683796906740E-19   3.69658529524044E-02   9.63034147047597E-01
      8.51683796906740E-19   3.69658529524044E-02   9.63034147047597E-01   8.51683796906740E-19   3.69658529524044E-02
      1.95312500000000E-05
      0.00000000000000E+00   0.00000000000000E+00   0.00000000000000E+00  -2.16383503725372E-01   9.66738721923045E+03
     -1.92391244256576E-16   9.66717083572673E+03   1.00495650167690E-22   0.00000000000000E+00   0.00000000000000E+00
      0.00000000000000E+00  -1.55775798234899E+00  -9.66738719738023E+03   7.35812127156728E-16  -9.66894495536258E+03
      3.45695964184134E-23   9.63034147047597E-01   8.51683796906740E-19   3.69658529524044E-02   9.63034147047597E-01
      8.51683796906740E-19   3.69658529524044E-02   9.63034147047597E-01   8.51683796906740E-19   3.69658529524044E-02
      5.85937500000000E-05
      0.00000000000000E+00   0.00000000000000E+00   0.00000000000000E+00  -2.31193954659843E-04   9.66719222310865E+03
     -2.68335156463119E-16   9.66719199191470E+03   2.96742845144391E-22   0.00000000000000E+00   0.00000000000000E+00
      0.00000000000000E+00  -1.65206897302804E-03  -9.66719222310657E+03  -4.23260737364466E-15  -9.66719387517554E+03
      6.55102357497108E-23   9.63034147047597E-01   8.51683796906740E-19   3.69658529524044E-02   9.63034147047597E-01
      8.51683796906740E-19   3.69658529524044E-02   9.63034147047597E-01   8.51683796906740E-19   3.69658529524044E-02
      1.36718750000000E-04
      0.00000000000000E+00   0.00000000000000E+00   0.00000000000000E+00  -1.86178094826932E-07   9.66719201675792E+03
     -2.73398083943555E-16   9.66719201657174E+03   3.23090585662307E-22   0.00000000000000E+00   0.00000000000000E+00
      0.00000000000000E+00  -9.25592785808554E-07  -9.66719201675824E+03   8.22219422822839E-15  -9.66719201768383E+03
      1.56309766200262E-23   9.63034147047597E-01   8.51683796906740E-19   3.69658529524044E-02   9.63034147047597E-01
      8.51683796906740E-19   3.69658529524044E-02   9.63034147047597E-01   8.51683796906740E-19   3.69658529524044E-02
      2.92968750000000E-04
      0.00000000000000E+00   0.00000000000000E+00   0.00000000000000E+00  -4.99617352416935E-10   9.66719201659371E+03
     -7.08809847261068E-17   9.66719201659321E+03   3.57178211217588E-22   0.00000000000000E+00   0.00000000000000E+00
      0.00000000000000E+00  -2.85430947919778E-10  -9.66719201659328E+03   2.32557135601370E-15  -9.66719201659356E+03
     -2.94852763328185E-24   9.63034147047597E-01   8.51683796906740E-19   3.69658529524044E-02   9.63034147047597E-01
      8.51683796906740E-19   3.69658529524044E-02   9.63034147047597E-01   8.51683796906740E-19   3.69658529524044E-02
      6.05468750000000E-04
      0.00000000000000E+00   0.00000000000000E+00   0.00000000000000E+00   2.19509957983145E-10   9.66719201659300E+03
     -3.62843136097928E-16   9.66719201659322E+03   2.69752476808965E-22   0.00000000000000E+00   0.00000000000000E+00
      0.00000000000000E+00  -5.61906643716721E-12  -9.66719201659322E+03   5.21819058983625E-15  -9.66719201659322E+03
      1.92599337071423E-23   9.63034147047597E-01   8.51683796906740E-19   3.69658529524044E-02   9.63034147047597E-01
      8.51683796906740E-19   3.69658529524044E-02   9.63034147047597E-01   8.51683796906740E-19   3.69658529524044E-02
      1.23046875000000E-03
      0.00000000000000E+00   0.00000000000000E+00   0.00000000000000E+00   2.33600395687418E-10   9.66719201659299E+03
     -1.43449611945692E-16   9.66719201659322E+03   4.44471639899076E-22   0.00000000000000E+00   0.00000000000000E+00
      0.00000000000000E+00  -2.58288688205140E-11  -9.66719201659320E+03  -4.92791608095790E-16  -9.66719201659322E+03
     -3.48720095090064E-23   9.63034147047597E-01   8.51683796906740E-19   3.69658529524044E-02   9.63034147047597E-01
      8.51683796906740E-19   3.69658529524044E-02   9.63034147047597E-01   8.51683796906740E-19   3.69658529524044E-02
      2.48046875000000E-03
      0.00000000000000E+00   0.00000000000000E+00   0.00000000000000E+00   2.46124269121264E-10   9.66719201659298E+03
      6.24427722587132E-17   9.66719201659322E+03   3.90207390955793E-23   0.00000000000000E+00   0.00000000000000E+00
      0.00000000000000E+00   1.87374220651962E-11  -9.66719201659324E+03   5.80549017756685E-16  -9.66719201659322E+03
      5.50013808516037E-24   9.63034147047597E-01   8.51683796906740E-19   3.69658529524044E-02   9.63034147047597E-01
      8.51683796906740E-19   3.69658529524044E-02   9.63034147047597E-01   8.51683796906740E-19   3.69658529524044E-02
      4.98046875000000E-03
      0.00000000000000E+00   0.00000000000000E+00   0.00000000000000E+00   2.46137230215614E-10   9.66719201659298E+03
     -1.26573187010905E-16   9.66719201659322E+03   3.53898919266470E-22   0.00000000000000E+00   0.00000000000000E+00
      0.00000000000000E+00  -1.49095788671875E-11  -9.66719201659321E+03   2.09267669191363E-16  -9.66719201659322E+03
     -2.66501536085090E-24   9.63034147047597E-01   8.51683796906740E-19   3.69658529524044E-02   9.63034147047597E-01
      8.51683796906740E-19   3.69658529524044E-02   9.63034147047597E-01   8.51683796906740E-19   3.69658529524044E-02
      9.98046875000000E-03
      0.00000000000000E+00   0.00000000000000E+00   0.00000000000000E+00   2.46155375747704E-10   9.66719201659298E+03
     -1.85640674282661E-17   9.66719201659322E+03   1.46727051392096E-22   0.00000000000000E+00   0.00000000000000E+00
      0.00000000000000E+00  -3.51591286065406E-12  -9.66719201659322E+03   4.93804193591878E-15  -9.66719201659322E+03
     -3.00901025140045E-23   9.63034147047597E-01   8.51683796906740E-19   3.69658529524044E-02   9.63034147047597E-01
      8.51683796906740E-19   3.69658529524044E-02   9.63034147047597E-01   8.51683796906740E-19   3.69658529524044E-02
      1.99804687500000E-02
      0.00000000000000E+00   0.00000000000000E+00   0.00000000000000E+00   2.46152783528834E-10   9.66719201659298E+03
      2.86899223891385E-17   9.66719201659322E+03   2.49245089103126E-22   0.00000000000000E+00   0.00000000000000E+00
      0.00000000000000E+00  -1.46296192292293E-11  -9.66719201659321E+03   2.63947285980074E-15  -9.66719201659322E+03
     -3.23203990571279E-23   9.63034147047597E-01   8.51683796906740E-19   3.69658529524044E-02   9.63034147047597E-01
      8.51683796906740E-19   3.69658529524044E-02   9.63034147047597E-01   8.51683796906740E-19   3.69658529524044E-02
      3.99804687500000E-02
      0.00000000000000E+00   0.00000000000000E+00   0.00000000000000E+00   2.46150191309964E-10   9.66719201659298E+03
     -4.21910623369683E-17   9.66719201659322E+03   1.49448769207433E-22   0.00000000000000E+00   0.00000000000000E+00
      0.00000000000000E+00  -3.89092052384499E-12  -9.66719201659322E+03  -8.97825806530686E-16  -9.66719201659322E+03
     -3.06382262407043E-23   9.63034147047597E-01   8.51683796906740E-19   3.69658529524044E-02   9.63034147047597E-01
      8.51683796906740E-19   3.69658529524044E-02   9.63034147047597E-01   8.51683796906740E-19   3.69658529524044E-02
      7.99804687500000E-02
      0.00000000000000E+00   0.00000000000000E+00   0.00000000000000E+00   2.46145006872224E-10   9.66719201659298E+03
     -2.34582306593544E-16   9.66719201659322E+03   3.44278402821980E-22   0.00000000000000E+00   0.00000000000000E+00
      0.00000000000000E+00  -2.60414307678526E-11  -9.66719201659320E+03  -3.44954125667053E-15  -9.66719201659322E+03
      6.23726999348083E-25   9.63034147047597E-01   8.51683796906740E-19   3.69658529524044E-02   9.63034147047597E-01
      8.51683796906740E-19   3.69658529524044E-02   9.63034147047597E-01   8.51683796906740E-19   3.69658529524044E-02
      1.00000000000000E-01
      0.00000000000000E+00   0.00000000000000E+00   0.00000000000000E+00   2.58683569546334E-10   9.66719201659296E+03
     -1.18134974543511E-17   9.66719201659322E+03   3.45488055184352E-22   0.00000000000000E+00   0.00000000000000E+00
      0.00000000000000E+00  -9.21447400983410E-12  -9.66719201659321E+03  -2.35594892089631E-15  -9.66719201659322E+03
     -4.63070044970546E-24   9.63034147047597E-01   8.51683796906740E-19   3.69658529524044E-02   9.63034147047597E-01
      8.51683796906740E-19   3.69658529524044E-02   9.63034147047597E-01   8.51683796906740E-19   3.69658529524044E-02
      0.00000000000000E+00
      0.00000000000000E+00   0.00000000000000E+00   0.00000000000000E+00   0.00000000000000E+00   9.66719201659322E+03
      8.00443560774171E-17   9.66719201659322E+03   5.33003072170180E-23   0.00000000000000E+00   0.00000000000000E+00
      0.00000000000000E+00   0.00000000000000E+00  -9.66719201659319E+03  -3.14794174900534E-11  -9.66719201659322E+03
     -1.40055062580888E-23   9.63034147047597E-01   8.51683796906740E-19   3.69658529524044E-02   9.63034147047597E-01
      8.51683796906740E-19   3.69658529524044E-02   9.63034147047597E-01   8.51683796906740E-19   3.69658529524044E-02
      1.00000000000000E-03
      0.00000000000000E+00   0.00000000000000E+00   0.00000000000000E+00   0.00000000000000E+00   9.66707081762767E+03
     -4.47528509032411E-16   9.66707081762767E+03  -2.35627049617360E-22   1.50000000000000E-03   1.50000000000000E-03
      0.00000000000000E+00   0.00000000000000E+00  -9.66707081762768E+03   9.25103572967875E-12  -9.66707081762767E+03
     -2.76329961529363E-23   9.63034147047597E-01   8.51683796906740E-19   3.69658529524044E-02   9.63034147047597E-01
      8.51683796906740E-19   3.69658529524044E-02   9.63034147047597E-01   8.51683796906740E-19   3.69658529524044E-02
      2.00000000000000E-03
      0.00000000000000E+00   0.00000000000000E+00   0.00000000000000E+00   0.00000000000000E+00   9.66694944502358E+03
     -2.00618501412284E-16   9.66694944502358E+03   1.09861005566992E-22   3.00000000000000E-03   3.00000000000000E-03
      0.00000000000000E+00   0.00000000000000E+00  -9.66694944502362E+03   3.94384331534575E-11  -9.66694944502358E+03
     -2.41552456111167E-23   9.63034147047597E-01   8.51683796906740E-19   3.69658529524044E-02   9.63034147047597E-01
      8.51683796906740E-19   3.69658529524044E-02   9.63034147047597E-01   8.51683796906740E-19   3.69658529524044E-02
      3.00000000000000E-03
      0.00000000000000E+00   0.00000000000000E+00   0.00000000000000E+00   0.00000000000000E+00   9.66682789834830E+03
     -5.71754818200823E-16   9.66682789834830E+03   1.00382245258717E-22   4.50000000000000E-03   4.50000000000000E-03
      0.00000000000000E+00   0.00000000000000E+00  -9.66682789834828E+03  -1.53094782023807E-11  -9.66682789834830E+03
      6.66442848394345E-23   9.63034147047597E-01   8.51683796906740E-19   3.69658529524044E-02   9.63034147047597E-01
      8.51683796906740E-19   3.69658529524044E-02   9.63034147047597E-01   8.51683796906740E-19   3.69658529524044E-02
      4.00000000000000E-03
      0.00000000000000E+00   0.00000000000000E+00   0.00000000000000E+00   0.00000000000000E+00   9.66670617716663E+03
      9.82366147688387E-16   9.66670617716663E+03  -2.33850372710126E-22   6.00000000000000E-03   6.00000000000000E-03
      0.00000000000000E+00   0.00000000000000E+00  -9.66670617716654E+03  -8.48721570920333E-11  -9.66670617716663E+03
      1.55175717110538E-23   9.63034147047597E-01   8.51683796906740E-19   3.69658529524044E-02   9.63034147047597E-01
      8.51683796906740E-19   3.69658529524044E-02   9.63034147047597E-01   8.51683796906740E-19   3.69658529524044E-02
      5.00000000000000E-03
      0.00000000000000E+00   0.00000000000000E+00   0.00000000000000E+00   0.00000000000000E+00   9.66658428104079E+03
     -5.80127107133315E-19   9.66658428104079E+03  -2.73494838805053E-23   7.50000000000000E-03   7.50000000000000E-03
      0.00000000000000E+00   0.00000000000000E+00  -9.66658428104077E+03  -1.89930530708790E-11  -9.66658428104079E+03
     -1.16996064423171E-23   9.63034147047597E-01   8.51683796906740E-19   3.69658529524044E-02   9.63034147047597E-01
      8.51683796906740E-19   3.69658529524044E-02   9.63034147047597E-01   8.51683796906740E-19   3.69658529524044E-02
      6.00000000000000E-03
      0.00000000000000E+00   0.00000000000000E+00   0.00000000000000E+00   0.00000000000000E+00   9.66646220953041E+03
     -7.89197005719973E-16   9.66646220953041E+03  -1.14085338426213E-22   9.00000000000000E-03   9.00000000000000E-03
      0.00000000000000E+00   0.00000000000000E+00  -9.66646220953037E+03  -3.25871668258395E-11  -9.66646220953041E+03
      1.09624745339966E-23   9.63034147047597E-01   8.51683796906740E-19   3.69658529524044E-02   9.63034147047597E-01
      8.51683796906740E-19   3.69658529524044E-02   9.63034147047597E-01   8.51683796906740E-19   3.69658529524044E-02
      7.00000000000000E-03
      0.00000000000000E+00   0.00000000000000E+00   0.00000000000000E+00   0.00000000000000E+00   9.66633996219245E+03
      3.74709372380200E-17   9.66633996219245E+03   2.45710636106820E-23   1.05000000000000E-02   1.05000000000000E-02
      0.00000000000000E+00   0.00000000000000E+00  -9.66633996219241E+03  -3.64763651105199E-11  -9.66633996219245E+03
     -5.63622397592722E-23   9.63034147047597E-01   8.51683796906740E-19   3.69658529524044E-02   9.63034147047597E-01
      8.51683796906740E-19   3.69658529524044E-02   9.63034147047597E-01   8.51683796906740E-19   3.69658529524044E-02
      8.00000000000000E-03
      0.00000000000000E+00   0.00000000000000E+00   0.00000000000000E+00   0.00000000000000E+00   9.66621753858124E+03
      3.53561102383795E-16   9.66621753858124E+03   1.86569976077725E-22   1.20000000000000E-02   1.20000000000000E-02
      0.00000000000000E+00   0.00000000000000E+00  -9.66621753858122E+03  -2.14949128193425E-11  -9.66621753858124E+03
     -3.60438602350544E-23   9.63034147047597E-01   8.51683796906740E-19   3.69658529524044E-02   9.63034147047597E-01
      8.51683796906740E-19   3.69658529524044E-02   9.63034147047597E-01   8.51683796906740E-19   3.69658529524044E-02
      9.00000000000000E-03
      0.00000000000000E+00   0.00000000000000E+00   0.00000000000000E+00   0.00000000000000E+00   9.66609493824841E+03
     -1.73243094309082E-15   9.66609493824841E+03  -3.75275744607763E-23   1.35000000000000E-02   1.35000000000000E-02
      0.00000000000000E+00   0.00000000000000E+00  -9.66609493824843E+03   2.25912801667643E-11  -9.66609493824841E+03
      3.09973417857835E-24   9.63034147047597E-01   8.51683796906740E-19   3.69658529524044E-02   9.63034147047597E-01
      8.51683796906740E-19   3.69658529524044E-02   9.63034147047597E-01   8.51683796906740E-19   3.69658529524044E-02
      1.00000000000000E-02
      0.00000000000000E+00   0.00000000000000E+00   0.00000000000000E+00   0.00000000000000E+00   9.66597216074289E+03
     -1.79285645518155E-16   9.66597216074289E+03   3.48294826681418E-22   1.50000000000000E-02   1.50000000000000E-02
      0.00000000000000E+00   0.00000000000000E+00  -9.66597216074294E+03   5.68401114997027E-11  -9.66597216074289E+03
     -1.22666309871790E-23   9.63034147047597E-01   8.51683796906740E-19   3.69658529524044E-02   9.63034147047597E-01
      8.51683796906740E-19   3.69658529524044E-02   9.63034147047597E-01   8.51683796906740E-19   3.69658529524044E-02
      1.10000000000000E-02
      0.00000000000000E+00   0.00000000000000E+00   0.00000000000000E+00   0.00000000000000E+00   9.66584920561089E+03
      8.16924444499550E-17   9.66584920561089E+03   2.39416663658853E-22   1.65000000000000E-02   1.65000000000000E-02
      0.00000000000000E+00   0.00000000000000E+00  -9.66584920561094E+03   5.59986340719538E-11  -9.66584920561089E+03
      1.56876790745124E-23   9.63034147047597E-01   8.51683796906740E-19   3.69658529524044E-02   9.63034147047597E-01
      8.51683796906740E-19   3.69658529524044E-02   9.63034147047597E-01   8.51683796906740E-19   3.69658529524044E-02
      1.20000000000000E-02
      0.00000000000000E+00   0.00000000000000E+00   0.00000000000000E+00   0.00000000000000E+00   9.66572607239589E+03
     -8.94911986288039E-16   9.66572607239589E+03   1.88431706666688E-22   1.80000000000000E-02   1.80000000000000E-02
      0.00000000000000E+00   0.00000000000000E+00  -9.66572607239588E+03  -1.17991045008232E-11  -9.66572607239589E+03
     -9.54869333547428E-23   9.63034147047597E-01   8.51683796906740E-19   3.69658529524044E-02   9.63034147047597E-01
      8.51683796906740E-19   3.69658529524044E-02   9.63034147047597E-01   8.51683796906740E-19   3.69658529524044E-02
      1.30000000000000E-02
      0.00000000000000E+00   0.00000000000000E+00   0.00000000000000E+00   0.00000000000000E+00   9.66560276063864E+03
     -7.18803855152138E-16   9.66560276063864E+03   7.23334311062155E-23   1.95000000000000E-02   1.95000000000000E-02
      0.00000000000000E+00   0.00000000000000E+00  -9.66560276063861E+03  -3.31593169742944E-11  -9.66560276063864E+03
     -1.97891566156801E-23   9.63034147047597E-01   8.51683796906740E-19   3.69658529524044E-02   9.63034147047597E-01
      8.51683796906740E-19   3.69658529524044E-02   9.63034147047597E-01   8.51683796906740E-19   3.69658529524044E-02
      1.40000000000000E-02
      0.00000000000000E+00   0.00000000000000E+00   0.00000000000000E+00   0.00000000000000E+00   9.66547926987710E+03
      1.83188318784324E-16   9.66547926987710E+03   5.45959583020274E-22   2.10000000000000E-02   2.10000000000000E-02
      0.00000000000000E+00   0.00000000000000E+00  -9.66547926987715E+03   4.67860258563739E-11  -9.66547926987710E+03
      6.76460282020239E-23   9.63034147047597E-01   8.51683796906740E-19   3.69658529524044E-02   9.63034147047597E-01
      8.51683796906740E-19   3.69658529524044E-02   9.63034147047597E-01   8.51683796906740E-19   3.69658529524044E-02
      1.50000000000000E-02
      0.00000000000000E+00   0.00000000000000E+00   0.00000000000000E+00   0.00000000000000E+00   9.66535559964651E+03
     -9.34426553108007E-16   9.66535559964651E+03   2.17737425226967E-23   2.25000000000000E-02   2.25000000000000E-02
      0.00000000000000E+00   0.00000000000000E+00  -9.66535559964650E+03  -9.72627374628925E-12  -9.66535559964651E+03
     -8.73217799087316E-24   9.63034147047597E-01   8.51683796906740E-19   3.69658529524044E-02   9.63034147047597E-01
      8.51683796906740E-19   3.69658529524044E-02   9.63034147047597E-01   8.51683796906740E-19   3.69658529524044E-02
      1.60000000000000E-02
      0.00000000000000E+00   0.00000000000000E+00   0.00000000000000E+00   0.00000000000000E+00   9.66523174947932E+03
      1.14113638914519E-16   9.66523174947932E+03   3.70238676567573E-22   2.40000000000000E-02   2.40000000000000E-02
      0.00000000000000E+00   0.00000000000000E+00  -9.66523174947935E+03   3.08091429550555E-11  -9.66523174947932E+03
     -5.12023164010290E-23   9.63034147047597E-01   8.51683796906740E-19   3.69658529524044E-02   9.63034147047597E-01
      8.51683796906740E-19   3.69658529524044E-02   9.63034147047597E-01   8.51683796906740E-19   3.69658529524044E-02
      1.70000000000000E-02
      0.00000000000000E+00   0.00000000000000E+00   0.00000000000000E+00   0.00000000000000E+00   9.66510771890522E+03
     -1.57476821702036E-15   9.66510771890522E+03  -2.65660449676878E-22   2.55000000000000E-02   2.55000000000000E-02
      0.00000000000000E+00   0.00000000000000E+00  -9.66510771890524E+03   1.60196102120577E-11  -9.66510771890522E+03
      5.58519176688965E-23   9.63034147047597E-01   8.51683796906740E-19   3.69658529524044E-02   9.63034147047597E-01
      8.51683796906740E-19   3.69658529524044E-02   9.63034147047597E-01   8.51683796906740E-19   3.69658529524044E-02
      1.80000000000000E-02
      0.00000000000000E+00   0.00000000000000E+00   0.00000000000000E+00   0.00000000000000E+00   9.66498350745115E+03
     -1.21679023779817E-15   9.66498350745115E+03  -3.84234732416581E-22   2.70000000000000E-02   2.70000000000000E-02
      0.00000000000000E+00   0.00000000000000E+00  -9.66498350745118E+03   2.68932870914587E-11  -9.66498350745115E+03
      7.80225773729965E-23   9.63034147047597E-01   8.51683796906740E-19   3.69658529524044E-02   9.63034147047597E-01
      8.51683796906740E-19   3.69658529524044E-02   9.63034147047597E-01   8.51683796906740E-19   3.69658529524044E-02
      1.90000000000000E-02
      0.00000000000000E+00   0.00000000000000E+00   0.00000000000000E+00   0.00000000000000E+00   9.66485911464128E+03
     -6.43268668861984E-16   9.66485911464128E+03   8.10750595061697E-23   2.85000000000000E-02   2.85000000000000E-02
      0.00000000000000E+00   0.00000000000000E+00  -9.66485911464128E+03   6.32633504492111E-12  -9.66485911464128E+03
      2.91639624240634E-23   9.63034147047597E-01   8.51683796906740E-19   3.69658529524044E-02   9.63034147047597E-01
      8.51683796906740E-19   3.69658529524044E-02   9.63034147047597E-01   8.51683796906740E-19   3.69658529524044E-02
      2.00000000000000E-02
      0.00000000000000E+00   0.00000000000000E+00   0.00000000000000E+00   0.00000000000000E+00   9.66473453999702E+03
      9.27847384324835E-16   9.66473453999702E+03  -3.04993052272131E-22   3.00000000000000E-02   3.00000000000000E-02
      0.00000000000000E+00   0.00000000000000E+00  -9.66473453999713E+03   1.04530318507805E-10  -9.66473453999702E+03
     -9.19146787221129E-23   9.63034147047597E-01   8.51683796906740E-19   3.69658529524044E-02   9.63034147047597E-01
      8.51683796906740E-19   3.69658529524044E-02   9.63034147047597E-01   8.51683796906740E-19   3.69658529524044E-02
      2.10000000000000E-02
      0.00000000000000E+00   0.00000000000000E+00   0.00000000000000E+00   0.00000000000000E+00   9.66460978303706E+03
     -8.98313640688958E-16   9.66460978303706E+03  -5.14102254008117E-23   3.15000000000000E-02   3.15000000000000E-02
      0.00000000000000E+00   0.00000000000000E+00  -9.66460978303706E+03  -6.76339268158039E-12  -9.66460978303706E+03
      1.93733386161147E-23   9.63034147047597E-01   8.51683796906740E-19   3.69658529524044E-02   9.63034147047597E-01
      8.51683796906740E-19   3.69658529524044E-02   9.63034147047597E-01   8.51683796906740E-19   3.69658529524044E-02
      2.20000000000000E-02
      0.00000000000000E+00   0.00000000000000E+00   0.00000000000000E+00   0.00000000000000E+00   9.66448484327735E+03
      1.40480415933728E-15   9.66448484327735E+03  -7.18892618794070E-23   3.30000000000000E-02   3.30000000000000E-02
      0.00000000000000E+00   0.00000000000000E+00  -9.66448484327736E+03   7.67175496758614E-12  -9.66448484327735E+03
     -5.83279248481268E-23   9.63034147047597E-01   8.51683796906740E-19   3.69658529524044E-02   9.63034147047597E-01
      8.51683796906740E-19   3.69658529524044E-02   9.63034147047597E-01   8.51683796906740E-19   3.69658529524044E-02
      2.30000000000000E-02
      0.00000000000000E+00   0.00000000000000E+00   0.00000000000000E+00   0.00000000000000E+00   9.66435972023110E+03
      5.60310492541920E-16   9.66435972023110E+03   4.00470535217793E-22   3.45000000000000E-02   3.45000000000000E-02
      0.00000000000000E+00   0.00000000000000E+00  -9.66435972023108E+03  -2.57034671738265E-11  -9.66435972023110E+03
      1.24178375324755E-23   9.63034147047597E-01   8.51683796906740E-19   3.69658529524044E-02   9.63034147047597E-01
      8.51683796906740E-19   3.69658529524044E-02   9.63034147047597E-01   8.51683796906740E-19   3.69658529524044E-02
      2.40000000000000E-02
      0.00000000000000E+00   0.00000000000000E+00   0.00000000000000E+00   0.00000000000000E+00   9.66423441340886E+03
      8.76888491845966E-16   9.66423441340886E+03   1.76250129361239E-22   3.60000000000000E-02   3.60000000000000E-02
      0.00000000000000E+00   0.00000000000000E+00  -9.66423441340882E+03  -3.94538749767952E-11  -9.66423441340886E+03
     -8.59420201829010E-23   9.63034147047597E-01   8.51683796906740E-19   3.69658529524044E-02   9.63034147047597E-01
      8.51683796906740E-19   3.69658529524044E-02   9.63034147047597E-01   8.51683796906740E-19   3.69658529524044E-02
      2.50000000000000E-02
      0.00000000000000E+00   0.00000000000000E+00   0.00000000000000E+00   0.00000000000000E+00   9.66410892231846E+03
      5.00333260488523E-16   9.66410892231846E+03   1.24329581870051E-22   3.75000000000000E-02   3.75000000000000E-02
      0.00000000000000E+00   0.00000000000000E+00  -9.66410892231844E+03  -2.09924780220389E-11  -9.66410892231846E+03
     -1.04521524436209E-23   9.63034147047597E-01   8.51683796906740E-19   3.69658529524044E-02   9.63034147047597E-01
      8.51683796906740E-19   3.69658529524044E-02   9.63034147047597E-01   8.51683796906740E-19   3.69658529524044E-02
      2.60000000000000E-02
      0.00000000000000E+00   0.00000000000000E+00   0.00000000000000E+00   0.00000000000000E+00   9.66398324646509E+03
      2.38946444604024E-16   9.66398324646509E+03   1.84235725034710E-22   3.90000000000000E-02   3.90000000000000E-02
      0.00000000000000E+00   0.00000000000000E+00  -9.66398324646512E+03   2.73458401341048E-11  -9.66398324646509E+03
     -7.80981806456448E-23   9.63034147047597E-01   8.51683796906740E-19   3.69658529524044E-02   9.63034147047597E-01
      8.51683796906740E-19   3.69658529524044E-02   9.63034147047597E-01   8.51683796906740E-19   3.69658529524044E-02
      2.70000000000000E-02
      0.00000000000000E+00   0.00000000000000E+00   0.00000000000000E+00   0.00000000000000E+00   9.66385738535129E+03
     -1.16776949724540E-15   9.66385738535129E+03   9.51467186278257E-23   4.05000000000000E-02   4.05000000000000E-02
      0.00000000000000E+00   0.00000000000000E+00  -9.66385738535128E+03  -9.84198663742165E-12  -9.66385738535129E+03
     -3.25094072387486E-24   9.63034147047597E-01   8.51683796906740E-19   3.69658529524044E-02   9.63034147047597E-01
      8.51683796906740E-19   3.69658529524044E-02   9.63034147047597E-01   8.51683796906740E-19   3.69658529524044E-02
      2.80000000000000E-02
      0.00000000000000E+00   0.00000000000000E+00   0.00000000000000E+00   0.00000000000000E+00   9.66373133847700E+03
     -3.05225966594005E-16   9.66373133847700E+03   2.98982592096595E-22   4.20000000000000E-02   4.20000000000000E-02
      0.00000000000000E+00   0.00000000000000E+00  -9.66373133847705E+03   5.03677917928554E-11  -9.66373133847700E+03
     -1.97324541611939E-23   9.63034147047597E-01   8.51683796906740E-19   3.69658529524044E-02   9.63034147047597E-01
      8.51683796906740E-19   3.69658529524044E-02   9.63034147047597E-01   8.51683796906740E-19   3.69658529524044E-02
      2.90000000000000E-02
      0.00000000000000E+00   0.00000000000000E+00   0.00000000000000E+00   0.00000000000000E+00   9.66360510533956E+03
     -5.69552972135112E-16   9.66360510533956E+03  -4.69108856373325E-22   4.35000000000000E-02   4.35000000000000E-02
      0.00000000000000E+00   0.00000000000000E+00  -9.66360510533955E+03  -7.16152189075322E-12  -9.66360510533956E+03
      4.85751026765022E-24   9.63034147047597E-01   8.51683796906740E-19   3.69658529524044E-02   9.63034147047597E-01
      8.51683796906740E-19   3.69658529524044E-02   9.63034147047597E-01   8.51683796906740E-19   3.69658529524044E-02
      3.00000000000000E-02
      0.00000000000000E+00   0.00000000000000E+00   0.00000000000000E+00   0.00000000000000E+00   9.66347868543374E+03
     -6.60738405610885E-16   9.66347868543374E+03  -2.09080850508742E-22   4.50000000000000E-02   4.50000000000000E-02
      0.00000000000000E+00   0.00000000000000E+00  -9.66347868543372E+03  -2.56773285449769E-11  -9.66347868543374E+03
      2.62721372452677E-23   9.63034147047597E-01   8.51683796906740E-19   3.69658529524044E-02   9.63034147047597E-01
      8.51683796906740E-19   3.69658529524044E-02   9.63034147047597E-01   8.51683796906740E-19   3.69658529524044E-02
      3.10000000000000E-02
      0.00000000000000E+00   0.00000000000000E+00   0.00000000000000E+00   0.00000000000000E+00   9.66335207825181E+03
      1.20851024181454E-16   9.66335207825181E+03   1.50044144979538E-22   4.65000000000000E-02   4.65000000000000E-02
      0.00000000000000E+00   0.00000000000000E+00  -9.66335207825180E+03  -4.36567239393970E-12  -9.66335207825181E+03
      4.10147754116770E-23   9.63034147047597E-01   8.51683796906740E-19   3.69658529524044E-02   9.63034147047597E-01
      8.51683796906740E-19   3.69658529524044E-02   9.63034147047597E-01   8.51683796906740E-19   3.69658529524044E-02
      3.20000000000000E-02
      0.00000000000000E+00   0.00000000000000E+00   0.00000000000000E+00   0.00000000000000E+00   9.66322528328350E+03
     -1.33202457680601E-15   9.66322528328350E+03   2.97101960689470E-22   4.80000000000000E-02   4.80000000000000E-02
      0.00000000000000E+00   0.00000000000000E+00  -9.66322528328346E+03  -3.95842148763739E-11  -9.66322528328350E+03