DF-ISE text

Info {
  version   = 1.0
  type      = xyplot
  datasets  = [
    "time"
    "back OuterVoltage" "back InnerVoltage" "back QuasiFermiPotential" "back DisplacementCurrent" "back eCurrent"
    "back hCurrent" "back TotalCurrent" "back Charge" "front OuterVoltage" "front InnerVoltage"
    "front QuasiFermiPotential" "front DisplacementCurrent" "front eCurrent" "front hCurrent" "front TotalCurrent"
    "front Charge" "Stripe0 R_TE" "Stripe0 T_TE" "Stripe0 A_TE" "Stripe0 R_TM"
    "Stripe0 T_TM" "Stripe0 A_TM" "Stripe0 R_Total" "Stripe0 T_Total" "Stripe0 A_Total" ]
  functions = [
    Time
    OuterVoltage InnerVoltage QuasiFermiPotential DisplacementCurrent eCurrent
    hCurrent TotalCurrent Charge OuterVoltage InnerVoltage
    QuasiFermiPotential DisplacementCurrent eCurrent hCurrent TotalCurrent
    Charge R_TE T_TE A_TE R_TM
    T_TM A_TM R_Total T_Total A_Total ]
}

Data {
      0.00000000000000E+00
      0.00000000000000E+00   0.00000000000000E+00   0.00000000000000E+00   0.00000000000000E+00   5.51537692271006E+00
     -5.51537692271006E+00   5.48483810380589E-18   1.19878439192885E-22   0.00000000000000E+00   0.00000000000000E+00
      0.00000000000000E+00   0.00000000000000E+00   6.25489226559780E+00  -6.25489226559780E+00   8.81793202842638E-17
      1.09322332249373E-22   9.63034147047597E-01   8.51683796906740E-19   3.69658529524044E-02   9.63034147047597E-01
      8.51683796906740E-19   3.69658529524044E-02   9.63034147047597E-01   8.51683796906740E-19   3.69658529524044E-02
      5.00000000000000E-03
      0.00000000000000E+00   0.00000000000000E+00   0.00000000000000E+00  -1.46566487013389E-03   9.67209685749514E+00
      2.52157520998287E-19   9.67063119262501E+00  -3.22277850481338E-22   0.00000000000000E+00   0.00000000000000E+00
      0.00000000000000E+00  -2.26161746980723E-03  -9.67209685836716E+00  -2.74241905190294E-18  -9.67435847583697E+00
      1.62622639466391E-22   9.63034147047597E-01   8.51683796906740E-19   3.69658529524044E-02   9.63034147047597E-01
      8.51683796906740E-19   3.69658529524044E-02   9.63034147047597E-01   8.51683796906740E-19   3.69658529524044E-02
      1.50000000000000E-02
      0.00000000000000E+00   0.00000000000000E+00   0.00000000000000E+00  -6.00025121492376E-06   9.67073664675340E+00
     -3.35385983811448E-19   9.67073064650218E+00  -1.07725213114679E-22   0.00000000000000E+00   0.00000000000000E+00
      0.00000000000000E+00  -1.04939666745621E-05  -9.67073664721388E+00  -1.41076364689238E-18  -9.67074714118056E+00
     -4.98792591296846E-23   9.63034147047597E-01   8.51683796906740E-19   3.69658529524044E-02   9.63034147047597E-01
      8.51683796906740E-19   3.69658529524044E-02   9.63034147047597E-01   8.51683796906740E-19   3.69658529524044E-02
      3.50000000000000E-02
      0.00000000000000E+00   0.00000000000000E+00   0.00000000000000E+00  -1.28794268910138E-08   9.67073109140225E+00
     -3.46098558232943E-19   9.67073107852283E+00  -5.54550004874932E-23   0.00000000000000E+00   0.00000000000000E+00
      0.00000000000000E+00  -2.28692116567289E-08  -9.67073109152323E+00   2.36006254947417E-18  -9.67073111439244E+00
     -2.20383539769656E-23   9.63034147047597E-01   8.51683796906740E-19   3.69658529524044E-02   9.63034147047597E-01
      8.51683796906740E-19   3.69658529524044E-02   9.63034147047597E-01   8.51683796906740E-19   3.69658529524044E-02
      7.50000000000000E-02
      0.00000000000000E+00   0.00000000000000E+00   0.00000000000000E+00   5.38090327385458E-10   9.67073107892516E+00
      8.24044186268913E-21   9.67073107946325E+00  -4.25929937282092E-23   0.00000000000000E+00   0.00000000000000E+00
      0.00000000000000E+00   3.22603503214381E-11  -9.67073107953453E+00   1.88541309818327E-18  -9.67073107950227E+00
     -2.39530068567826E-22   9.63034147047597E-01   8.51683796906740E-19   3.69658529524044E-02   9.63034147047597E-01
      8.51683796906740E-19   3.69658529524044E-02   9.63034147047597E-01   8.51683796906740E-19   3.69658529524044E-02
      1.00000000000000E-01
      0.00000000000000E+00   0.00000000000000E+00   0.00000000000000E+00  -5.08372842516924E-10   9.67073107997264E+00
     -5.66942400153012E-19   9.67073107946427E+00  -1.21267649327797E-22   0.00000000000000E+00   0.00000000000000E+00
      0.00000000000000E+00   4.98458230610781E-11  -9.67073107951419E+00  -1.12729244681587E-18  -9.67073107946434E+00
     -1.81995978082506E-22   9.63034147047597E-01   8.51683796906740E-19   3.69658529524044E-02   9.63034147047597E-01
      8.51683796906740E-19   3.69658529524044E-02   9.63034147047597E-01   8.51683796906740E-19   3.69658529524044E-02
      0.00000000000000E+00
      0.00000000000000E+00   0.00000000000000E+00   0.00000000000000E+00   0.00000000000000E+00   9.67073107946427E+00
     -1.80504303864123E-19   9.67073107946427E+00   5.28060508220800E-22   0.00000000000000E+00   0.00000000000000E+00
      0.00000000000000E+00   0.00000000000000E+00  -9.67073107951414E+00   4.98675354885144E-11  -9.67073107946427E+00
     -2.11972675687538E-22   9.63034147047597E-01   8.51683796906740E-19   3.69658529524044E-02   9.63034147047597E-01
      8.51683796906740E-19   3.69658529524044E-02   9.63034147047597E-01   8.51683796906740E-19   3.69658529524044E-02
      1.00000000000000E-03
      0.00000000000000E+00   0.00000000000000E+00   0.00000000000000E+00   0.00000000000000E+00   9.67060936717302E+00
      3.71682555078511E-19   9.67060936717302E+00   1.53077726294549E-22   1.50000000000000E-03   1.50000000000000E-03
      0.00000000000000E+00   0.00000000000000E+00  -9.67060936711416E+00  -5.88521362540607E-11  -9.67060936717302E+00
      7.12560844709779E-23   9.63034147047597E-01   8.51683796906740E-19   3.69658529524044E-02   9.63034147047597E-01
      8.51683796906740E-19   3.69658529524044E-02   9.63034147047597E-01   8.51683796906740E-19   3.69658529524044E-02
      2.00000000000000E-03
      0.00000000000000E+00   0.00000000000000E+00   0.00000000000000E+00   0.00000000000000E+00   9.67048747659993E+00
     -9.57732479800634E-19   9.67048747659993E+00  -3.85860202778518E-23   3.00000000000000E-03   3.00000000000000E-03
      0.00000000000000E+00   0.00000000000000E+00  -9.67048747668752E+00   8.75903732884092E-11  -9.67048747659993E+00
      6.68143922028931E-23   9.63034147047597E-01   8.51683796906740E-19   3.69658529524044E-02   9.63034147047597E-01
      8.51683796906740E-19   3.69658529524044E-02   9.63034147047597E-01   8.51683796906740E-19   3.69658529524044E-02
      3.00000000000000E-03
      0.00000000000000E+00   0.00000000000000E+00   0.00000000000000E+00   0.00000000000000E+00   9.67036540729305E+00
      2.63077394035392E-18   9.67036540729305E+00  -1.60694756013861E-22   4.50000000000000E-03   4.50000000000000E-03
      0.00000000000000E+00   0.00000000000000E+00  -9.67036540723823E+00  -5.48206260299540E-11  -9.67036540729305E+00
      1.34857337586320E-22   9.63034147047597E-01   8.51683796906740E-19   3.69658529524044E-02   9.63034147047597E-01
      8.51683796906740E-19   3.69658529524044E-02   9.63034147047597E-01   8.51683796906740E-19   3.69658529524044E-02
      4.00000000000000E-03
      0.00000000000000E+00   0.00000000000000E+00   0.00000000000000E+00   0.00000000000000E+00   9.67024315881559E+00
     -7.68163689887552E-19   9.67024315881559E+00   4.03674223896263E-22   6.00000000000000E-03   6.00000000000000E-03
      0.00000000000000E+00   0.00000000000000E+00  -9.67024315883415E+00   1.85688197994501E-11  -9.67024315881558E+00
      1.66950926825503E-22   9.63034147047597E-01   8.51683796906740E-19   3.69658529524044E-02   9.63034147047597E-01
      8.51683796906740E-19   3.69658529524044E-02   9.63034147047597E-01   8.51683796906740E-19   3.69658529524044E-02
      5.00000000000000E-03
      0.00000000000000E+00   0.00000000000000E+00   0.00000000000000E+00   0.00000000000000E+00   9.67012073074507E+00
      1.97196348912233E-18   9.67012073074507E+00  -3.01420797639502E-22   7.50000000000000E-03   7.50000000000000E-03
      0.00000000000000E+00   0.00000000000000E+00  -9.67012073066865E+00  -7.64173112259922E-11  -9.67012073074507E+00
     -4.23756343193455E-23   9.63034147047597E-01   8.51683796906740E-19   3.69658529524044E-02   9.63034147047597E-01
      8.51683796906740E-19   3.69658529524044E-02   9.63034147047597E-01   8.51683796906740E-19   3.69658529524044E-02
      6.00000000000000E-03
      0.00000000000000E+00   0.00000000000000E+00   0.00000000000000E+00   0.00000000000000E+00   9.66999812267236E+00
      1.32073681954250E-18   9.66999812267236E+00   1.98090024747502E-22   9.00000000000000E-03   9.00000000000000E-03
      0.00000000000000E+00   0.00000000000000E+00  -9.66999812277375E+00   1.01388653214353E-10  -9.66999812267236E+00
      7.89109158266135E-23   9.63034147047597E-01   8.51683796906740E-19   3.69658529524044E-02   9.63034147047597E-01
      8.51683796906740E-19   3.69658529524044E-02   9.63034147047597E-01   8.51683796906740E-19   3.69658529524044E-02
      7.00000000000000E-03
      0.00000000000000E+00   0.00000000000000E+00   0.00000000000000E+00   0.00000000000000E+00   9.66987533420057E+00
      4.36691915960882E-19   9.66987533420057E+00   2.70385654217394E-22   1.05000000000000E-02   1.05000000000000E-02
      0.00000000000000E+00   0.00000000000000E+00  -9.66987533416677E+00  -3.38039182325125E-11  -9.66987533420057E+00
     -9.30109261755126E-23   9.63034147047597E-01   8.51683796906740E-19   3.69658529524044E-02   9.63034147047597E-01
      8.51683796906740E-19   3.69658529524044E-02   9.63034147047597E-01   8.51683796906740E-19   3.69658529524044E-02
      8.00000000000000E-03
      0.00000000000000E+00   0.00000000000000E+00   0.00000000000000E+00   0.00000000000000E+00   9.66975236494391E+00
      2.82132128273819E-19   9.66975236494391E+00  -3.18667794212384E-23   1.20000000000000E-02   1.20000000000000E-02
      0.00000000000000E+00   0.00000000000000E+00  -9.66975236501817E+00   7.42653003617989E-11  -9.66975236494391E+00
     -1.75777608907187E-24   9.63034147047597E-01   8.51683796906740E-19   3.69658529524044E-02   9.63034147047597E-01
      8.51683796906740E-19   3.69658529524044E-02   9.63034147047597E-01   8.51683796906740E-19   3.69658529524044E-02
      9.00000000000000E-03
      0.00000000000000E+00   0.00000000000000E+00   0.00000000000000E+00   0.00000000000000E+00   9.66962921452640E+00
     -1.08812459658728E-18   9.66962921452640E+00   1.79359313948898E-22   1.35000000000000E-02   1.35000000000000E-02
      0.00000000000000E+00   0.00000000000000E+00  -9.66962921450549E+00  -2.09028567451512E-11  -9.66962921452639E+00
      2.20818258587383E-22   9.63034147047597E-01   8.51683796906740E-19   3.69658529524044E-02   9.63034147047597E-01
      8.51683796906740E-19   3.69658529524044E-02   9.63034147047597E-01   8.51683796906740E-19   3.69658529524044E-02
      1.00000000000000E-02
      0.00000000000000E+00   0.00000000000000E+00   0.00000000000000E+00   0.00000000000000E+00   9.66950588258046E+00
     -1.52412122526600E-18   9.66950588258046E+00  -1.49221959389488E-22   1.50000000000000E-02   1.50000000000000E-02
      0.00000000000000E+00   0.00000000000000E+00  -9.66950588262428E+00   4.38130818795683E-11  -9.66950588258047E+00
      2.93529706056840E-23   9.63034147047597E-01   8.51683796906740E-19   3.69658529524044E-02   9.63034147047597E-01
      8.51683796906740E-19   3.69658529524044E-02   9.63034147047597E-01   8.51683796906740E-19   3.69658529524044E-02
      1.10000000000000E-02
      0.00000000000000E+00   0.00000000000000E+00   0.00000000000000E+00   0.00000000000000E+00   9.66938236874541E+00
     -1.87181636910984E-18   9.66938236874541E+00   8.88810974071018E-23   1.65000000000000E-02   1.65000000000000E-02
      0.00000000000000E+00   0.00000000000000E+00  -9.66938236875028E+00   4.89251678421181E-12  -9.66938236874539E+00
      4.51729554073308E-24   9.63034147047597E-01   8.51683796906740E-19   3.69658529524044E-02   9.63034147047597E-01
      8.51683796906740E-19   3.69658529524044E-02   9.63034147047597E-01   8.51683796906740E-19   3.69658529524044E-02
      1.20000000000000E-02
      0.00000000000000E+00   0.00000000000000E+00   0.00000000000000E+00   0.00000000000000E+00   9.66925867266591E+00
     -1.90791980502074E-18   9.66925867266591E+00  -2.72549797896950E-23   1.80000000000000E-02   1.80000000000000E-02
      0.00000000000000E+00   0.00000000000000E+00  -9.66925867279094E+00   1.25013993019080E-10  -9.66925867266592E+00
      8.73784823632178E-23   9.63034147047597E-01   8.51683796906740E-19   3.69658529524044E-02   9.63034147047597E-01
      8.51683796906740E-19   3.69658529524044E-02   9.63034147047597E-01   8.51683796906740E-19   3.69658529524044E-02
      1.30000000000000E-02
      0.00000000000000E+00   0.00000000000000E+00   0.00000000000000E+00   0.00000000000000E+00   9.66913479399026E+00
      5.71114123845999E-19   9.66913479399026E+00   1.56555476836369E-22   1.95000000000000E-02   1.95000000000000E-02
      0.00000000000000E+00   0.00000000000000E+00  -9.66913479397573E+00  -1.45249943403543E-11  -9.66913479399025E+00
      2.30760088940629E-22   9.63034147047597E-01   8.51683796906740E-19   3.69658529524044E-02   9.63034147047597E-01
      8.51683796906740E-19   3.69658529524044E-02   9.63034147047597E-01   8.51683796906740E-19   3.69658529524044E-02
      1.40000000000000E-02
      0.00000000000000E+00   0.00000000000000E+00   0.00000000000000E+00   0.00000000000000E+00   9.66901073236858E+00
      1.20694146769493E-18   9.66901073236858E+00   6.26278609799961E-23   2.10000000000000E-02   2.10000000000000E-02
      0.00000000000000E+00   0.00000000000000E+00  -9.66901073245270E+00   8.41096506554267E-11  -9.66901073236859E+00
     -6.05960230275743E-23   9.63034147047597E-01   8.51683796906740E-19   3.69658529524044E-02   9.63034147047597E-01
      8.51683796906740E-19   3.69658529524044E-02   9.63034147047597E-01   8.51683796906740E-19   3.69658529524044E-02
      1.50000000000000E-02
      0.00000000000000E+00   0.00000000000000E+00   0.00000000000000E+00   0.00000000000000E+00   9.66888648745097E+00
      1.70471565896299E-18   9.66888648745097E+00   2.99105447414649E-23   2.25000000000000E-02   2.25000000000000E-02
      0.00000000000000E+00   0.00000000000000E+00  -9.66888648752205E+00   7.10801334388232E-11  -9.66888648745097E+00
     -1.19698881420346E-22   9.63034147047597E-01   8.51683796906740E-19   3.69658529524044E-02   9.63034147047597E-01
      8.51683796906740E-19   3.69658529524044E-02   9.63034147047597E-01   8.51683796906740E-19   3.69658529524044E-02
      1.60000000000000E-02
      0.00000000000000E+00   0.00000000000000E+00   0.00000000000000E+00   0.00000000000000E+00   9.66876205888552E+00
     -9.26380173651184E-19   9.66876205888552E+00   3.19423826938867E-22   2.40000000000000E-02   2.40000000000000E-02
      0.00000000000000E+00   0.00000000000000E+00  -9.66876205883287E+00  -5.26424204659574E-11  -9.66876205888551E+00
      4.03910484123289E-23   9.63034147047597E-01   8.51683796906740E-19   3.69658529524044E-02   9.63034147047597E-01
      8.51683796906740E-19   3.69658529524044E-02   9.63034147047597E-01   8.51683796906740E-19   3.69658529524044E-02
      1.70000000000000E-02
      0.00000000000000E+00   0.00000000000000E+00   0.00000000000000E+00   0.00000000000000E+00   9.66863744631626E+00
      1.18807858124362E-18   9.66863744631626E+00   2.90231513287560E-22   2.55000000000000E-02   2.55000000000000E-02
      0.00000000000000E+00   0.00000000000000E+00  -9.66863744629664E+00  -1.96162836235144E-11  -9.66863744631625E+00
      1.67366744825069E-22   9.63034147047597E-01   8.51683796906740E-19   3.69658529524044E-02   9.63034147047597E-01
      8.51683796906740E-19   3.69658529524044E-02   9.63034147047597E-01   8.51683796906740E-19   3.69658529524044E-02
      1.80000000000000E-02
      0.00000000000000E+00   0.00000000000000E+00   0.00000000000000E+00   0.00000000000000E+00   9.66851264938104E+00
     -2.51075963003809E-19   9.66851264938104E+00   2.94559800646673E-22   2.70000000000000E-02   2.70000000000000E-02
      0.00000000000000E+00   0.00000000000000E+00  -9.66851264944846E+00   6.74289456588366E-11  -9.66851264938103E+00
      8.62633340916561E-23   9.63034147047597E-01   8.51683796906740E-19   3.69658529524044E-02   9.63034147047597E-01
      8.51683796906740E-19   3.69658529524044E-02   9.63034147047597E-01   8.51683796906740E-19   3.69658529524044E-02
      1.90000000000000E-02
      0.00000000000000E+00   0.00000000000000E+00   0.00000000000000E+00   0.00000000000000E+00   9.66838766770928E+00
      2.01208414044130E-19   9.66838766770928E+00  -8.27477819135123E-23   2.85000000000000E-02   2.85000000000000E-02
      0.00000000000000E+00   0.00000000000000E+00  -9.66838766777602E+00   6.67257524859336E-11  -9.66838766770930E+00
      5.62299340321378E-23   9.63034147047597E-01   8.51683796906740E-19   3.69658529524044E-02   9.63034147047597E-01
      8.51683796906740E-19   3.69658529524044E-02   9.63034147047597E-01   8.51683796906740E-19   3.69658529524044E-02
      2.00000000000000E-02
      0.00000000000000E+00   0.00000000000000E+00   0.00000000000000E+00   0.00000000000000E+00   9.66826250091973E+00
      1.80908600543011E-18   9.66826250091973E+00  -1.54580341338433E-22   3.00000000000000E-02   3.00000000000000E-02
      0.00000000000000E+00   0.00000000000000E+00  -9.66826250089998E+00  -1.97457959562210E-11  -9.66826250091973E+00
     -9.55625366273911E-23   9.63034147047597E-01   8.51683796906740E-19   3.69658529524044E-02   9.63034147047597E-01
      8.51683796906740E-19   3.69658529524044E-02   9.63034147047597E-01   8.51683796906740E-19   3.69658529524044E-02
      2.10000000000000E-02
      0.00000000000000E+00   0.00000000000000E+00   0.00000000000000E+00   0.00000000000000E+00   9.66813714861808E+00
      5.85431891582421E-19   9.66813714861808E+00   8.71327717271110E-23   3.15000000000000E-02   3.15000000000000E-02
      0.00000000000000E+00   0.00000000000000E+00  -9.66813714860031E+00  -1.77614330486825E-11  -9.66813714861807E+00
     -9.46174957192879E-23   9.63034147047597E-01   8.51683796906740E-19   3.69658529524044E-02   9.63034147047597E-01
      8.51683796906740E-19   3.69658529524044E-02   9.63034147047597E-01   8.51683796906740E-19   3.69658529524044E-02
      2.20000000000000E-02
      0.00000000000000E+00   0.00000000000000E+00   0.00000000000000E+00   0.00000000000000E+00   9.66801161039452E+00
      1.06398267706768E-18   9.66801161039452E+00  -2.48545758831130E-23   3.30000000000000E-02   3.30000000000000E-02
      0.00000000000000E+00   0.00000000000000E+00  -9.66801161052842E+00   1.33906019877281E-10  -9.66801161039452E+00
     -2.55350053369473E-23   9.63034147047597E-01   8.51683796906740E-19   3.69658529524044E-02   9.63034147047597E-01
      8.51683796906740E-19   3.69658529524044E-02   9.63034147047597E-01   8.51683796906740E-19   3.69658529524044E-02
      2.30000000000000E-02
      0.00000000000000E+00   0.00000000000000E+00   0.00000000000000E+00   0.00000000000000E+00   9.66788588582130E+00
      8.93727422770278E-19   9.66788588582130E+00   5.79026564394803E-23   3.45000000000000E-02   3.45000000000000E-02
      0.00000000000000E+00   0.00000000000000E+00  -9.66788588587997E+00   5.86658595262340E-11  -9.66788588582131E+00
     -2.65102875541097E-22   9.63034147047597E-01   8.51683796906740E-19   3.69658529524044E-02   9.63034147047597E-01
      8.51683796906740E-19   3.69658529524044E-02   9.63034147047597E-01   8.51683796906740E-19   3.69658529524044E-02
      2.40000000000000E-02
      0.00000000000000E+00   0.00000000000000E+00   0.00000000000000E+00   0.00000000000000E+00   9.66775997445020E+00
      7.99580374489055E-21   9.66775997445020E+00   1.11826690655846E-22   3.60000000000000E-02   3.60000000000000E-02
      0.00000000000000E+00   0.00000000000000E+00  -9.66775997435608E+00  -9.41177803245933E-11  -9.66775997445020E+00
     -5.72505782128892E-23   9.63034147047597E-01   8.51683796906740E-19   3.69658529524044E-02   9.63034147047597E-01
      8.51683796906740E-19   3.69658529524044E-02   9.63034147047597E-01   8.51683796906740E-19   3.69658529524044E-02
      2.50000000000000E-02
      0.00000000000000E+00   0.00000000000000E+00   0.00000000000000E+00   0.00000000000000E+00   9.66763387580986E+00
     -2.30191593158057E-19   9.66763387580986E+00  -1.62754945193525E-22   3.75000000000000E-02   3.75000000000000E-02
      0.00000000000000E+00   0.00000000000000E+00  -9.66763387595672E+00   1.46859445607210E-10  -9.66763387580986E+00
      8.80778126352141E-24   9.63034147047597E-01   8.51683796906740E-19   3.69658529524044E-02   9.63034147047597E-01
      8.51683796906740E-19   3.69658529524044E-02   9.63034147047597E-01   8.51683796906740E-19   3.69658529524044E-02
      2.60000000000000E-02
      0.00000000000000E+00   0.00000000000000E+00   0.00000000000000E+00   0.00000000000000E+00   9.66750758940325E+00
     -5.86642206481003E-19   9.66750758940325E+00  -2.18455656317125E-22   3.90000000000000E-02   3.90000000000000E-02
      0.00000000000000E+00   0.00000000000000E+00  -9.66750758940762E+00   4.36885104148572E-12  -9.66750758940325E+00
      2.93718714238461E-23   9.63034147047597E-01   8.51683796906740E-19   3.69658529524044E-02   9.63034147047597E-01
      8.51683796906740E-19   3.69658529524044E-02   9.63034147047597E-01   8.51683796906740E-19   3.69658529524044E-02
      2.70000000000000E-02
      0.00000000000000E+00   0.00000000000000E+00   0.00000000000000E+00   0.00000000000000E+00   9.66738111470492E+00
     -6.09496556959555E-19   9.66738111470492E+00  -2.90269314923884E-22   4.05000000000000E-02   4.05000000000000E-02
      0.00000000000000E+00   0.00000000000000E+00  -9.66738111477398E+00   6.90603829063005E-11  -9.66738111470492E+00
     -1.73131494364498E-23   9.63034147047597E-01   8.51683796906740E-19   3.69658529524044E-02   9.63034147047597E-01
      8.51683796906740E-19   3.69658529524044E-02   9.63034147047597E-01   8.51683796906740E-19   3.69658529524044E-02
      2.80000000000000E-02
      0.00000000000000E+00   0.00000000000000E+00   0.00000000000000E+00   0.00000000000000E+00   9.66725445115831E+00
      5.78878165163501E-19   9.66725445115831E+00   1.52151586204608E-23   4.20000000000000E-02   4.20000000000000E-02
      0.00000000000000E+00   0.00000000000000E+00  -9.66725445103386E+00  -1.24431685660577E-10  -9.66725445115829E+00
     -8.05174853703889E-24   9.63034147047597E-01   8.51683796906740E-19   3.69658529524044E-02   9.63034147047597E-01
      8.51683796906740E-19   3.69658529524044E-02   9.63034147047597E-01   8.51683796906740E-19   3.69658529524044E-02
      2.90000000000000E-02
      0.00000000000000E+00   0.00000000000000E+00   0.00000000000000E+00   0.00000000000000E+00   9.66712759817303E+00
      3.46119159337600E-18   9.66712759817303E+00  -2.23634480493531E-22   4.35000000000000E-02   4.35000000000000E-02
      0.00000000000000E+00   0.00000000000000E+00  -9.66712759827096E+00   9.79422490684576E-11  -9.66712759817302E+00
     -4.50217488620343E-23   9.63034147047597E-01   8.51683796906740E-19   3.69658529524044E-02   9.63034147047597E-01
      8.51683796906740E-19   3.69658529524044E-02   9.63034147047597E-01   8.51683796906740E-19   3.69658529524044E-02
      3.00000000000000E-02
      0.00000000000000E+00   0.00000000000000E+00   0.00000000000000E+00   0.00000000000000E+00   9.66700055512206E+00
     -1.98340997789722E-18   9.66700055512206E+00  -3.09047277767894E-22   4.50000000000000E-02   4.50000000000000E-02
      0.00000000000000E+00   0.00000000000000E+00  -9.66700055515426E+00   3.22158074466761E-11  -9.66700055512205E+00
      5.05218869471947E-23   9.63034147047597E-01   8.51683796906740E-19   3.69658529524044E-02   9.63034147047597E-01
      8.51683796906740E-19   3.69658529524044E-02   9.63034147047597E-01   8.51683796906740E-19   3.69658529524044E-02
      3.10000000000000E-02
      0.00000000000000E+00   0.00000000000000E+00   0.00000000000000E+00   0.00000000000000E+00   9.66687332133898E+00
     -1.01163011985878E-18   9.66687332133898E+00  -3.21843131663611E-22   4.65000000000000E-02   4.65000000000000E-02
      0.00000000000000E+00   0.00000000000000E+00  -9.66687332131919E+00  -1.97862722841698E-11  -9.66687332133898E+00
     -5.00304656749811E-23   9.63034147047597E-01   8.51683796906740E-19   3.69658529524044E-02   9.63034147047597E-01
      8.51683796906740E-19   3.69658529524044E-02   9.63034147047597E-01   8.51683796906740E-19   3.69658529524044E-02
      3.20000000000000E-02
      0.00000000000000E+00   0.00000000000000E+00   0.00000000000000E+00   0.00000000000000E+00   9.66674589611516E+00
      4.05803134666208E-19   9.66674589611516E+00  -4.41145095902553E-23   4.80000000000000E-02   4.80000000000000E-02
      0.00000000000000E+00   0.00000000000000E+00  -9.66674589607465E+00  -4.05045455286382E-11  -9.66674589611516E+00
     -7.08969689258987E-23   9.63034147047597E-01   8.51683796906740E-19   3.69658529524044E-02   9.63034147047597E-01
      8.51683796906740E-19   3.69658529524044E-02   9.63034147047597E-01   8.51683796906740E-19   3.69658529524044E-02
      3.30000000000000E-02
      0.00000000000000E+00   0.00000000000000E+00   0.00000000000000E+00   0.00000000000000E+00   9.66661827869695E+00
      6.13011620441609E-20   9.66661827869695E+00   4.45359978352693E-22   4.95000000000000E-02   4.95000000000000E-02
      0.00000000000000E+00   0.00000000000000E+00  -9.66661827880127E+00   1.04311191837899E-10  -9.66661827869696E+00
      1.65552266281511E-22   9.63034147047597E-01   8.51683796906740E-19   3.69658529524044E-02   9.63034147047597E-01
      8.51683796906740E-19   3.69658529524044E-02   9.63034147047597E-01   8.51683796906740E-19   3.69658529524044E-02
      3.40000000000000E-02
      0.00000000000000E+00   0.00000000000000E+00   0.00000000000000E+00   0.00000000000000E+00   9.66649046828283E+00
     -5.13727171686615E-19   9.66649046828283E+00  -4.04950029122202E-23   5.10000000000000E-02   5.10000000000000E-02
      0.00000000000000E+00   0.00000000000000E+00  -9.66649046821681E+00  -6.60166122264134E-11  -9.66649046828283E+00
      1.00363344440555E-22   9.63034147047597E-01   8.51683796906740E-19   3.69658529524044E-02   9.63034147047597E-01
      8.51683796906740E-19   3.69658529524044E-02   9.63034147047597E-01   8.51683796906740E-19   3.69658529524044E-02
      3.50000000000000E-02
      0.00000000000000E+00   0.00000000000000E+00   0.00000000000000E+00   0.00000000000000E+00   9.66636246402062E+00
     -1.27156455786499E-18   9.66636246402062E+00  -2.40456208657767E-22   5.25000000000000E-02   5.25000000000000E-02
      0.00000000000000E+00   0.00000000000000E+00  -9.66636246395500E+00  -6.56113761229381E-11  -9.66636246402062E+00
      1.71241412548292E-22   9.63034147047597E-01   8.51683796906740E-19   3.69658529524044E-02   9.63034147047597E-01
      8.51683796906740E-19   3.69658529524044E-02   9.63034147047597E-01   8.51683796906740E-19   3.69658529524044E-02
      3.60000000000000E-02
      0.00000000000000E+00   0.00000000000000E+00   0.00000000000000E+00   0.00000000000000E+00   9.66623426500464E+00
      6.43655763618484E-19   9.66623426500464E+00   1.18763290921324E-22   5.40000000000000E-02   5.40000000000000E-02
      0.00000000000000E+00   0.00000000000000E+00  -9.66623426491300E+00  -9.16586033292549E-11  -9.66623426500466E+00
      3.26606137840451E-23   9.63034147047597E-01   8.51683796906740E-19   3.69658529524044E-02   9.63034147047597E-01
      8.51683796906740E-19   3.69658529524044E-02   9.63034147047597E-01   8.51683796906740E-19   3.69658529524044E-02
      3.70000000000000E-02
      0.00000000000000E+00   0.00000000000000E+00   0.00000000000000E+00   0.00000000000000E+00   9.66610587027287E+00
     -1.77317570487536E-18   9.66610587027287E+00  -2.57901663821351E-23   5.55000000000000E-02   5.55000000000000E-02
      0.00000000000000E+00   0.00000000000000E+00  -9.66610587031877E+00   4.58952165816233E-11  -9.66610587027287E+00
      9.44095867195052E-23   9.63034147047597E-01   8.51683796906740E-19   3.69658529524044E-02   9.63034147047597E-01
      8.51683796906740E-19   3.69658529524044E-02   9.63034147047597E-01   8.51683796906740E-19   3.69658529524044E-02
      3.80000000000000E-02
      0.00000000000000E+00   0.00000000000000E+00   0.00000000000000E+00   0.00000000000000E+00   9.66597727880417E+00
     -9.58801162104701E-19   9.66597727880417E+00  -1.88526210757499E-22   5.70000000000000E-02   5.70000000000000E-02
      0.00000000000000E+00   0.00000000000000E+00  -9.66597727889043E+00   8.62621917780452E-11  -9.66597727880417E+00
     -1.36709617766203E-22   9.63034147047597E-01   8.51683796906740E-19   3.69658529524044E-02   9.63034147047597E-01
      8.51683796906740E-19   3.69658529524044E-02   9.63034147047597E-01   8.51683796906740E-19   3.69658529524044E-02
      3.90000000000000E-02
      0.00000000000000E+00   0.00000000000000E+00   0.00000000000000E+00   0.00000000000000E+00   9.66584848951548E+00
      1.12894053518841E-19   9.66584848951548E+00  -8.81250646806193E-23   5.85000000000000E-02   5.85000000000000E-02
      0.00000000000000E+00   0.00000000000000E+00  -9.66584848972145E+00   2.05978797095641E-10  -9.66584848951548E+00
     -2.09250957872201E-22   9.63034147047597E-01   8.51683796906740E-19   3.69658529524044E-02   9.63034147047597E-01
      8.51683796906740E-19   3.69658529524044E-02   9.63034147047597E-01   8.51683796906740E-19   3.69658529524044E-02
      4.00000000000000E-02
      0.00000000000000E+00   0.00000000000000E+00   0.00000000000000E+00   0.00000000000000E+00   9.66571950125900E+00
      1.05942468266238E-18   9.66571950125900E+00  -2.74874598530884E-22   6.00000000000000E-02   6.00000000000000E-02
      0.00000000000000E+00   0.00000000000000E+00  -9.66571950129034E+00   3.13415944981641E-11  -9.66571950125900E+00