DF-ISE text

Info {
  version   = 1.0
  type      = xyplot
  datasets  = [
    "time"
    "back OuterVoltage" "back InnerVoltage" "back QuasiFermiPotential" "back DisplacementCurrent" "back eCurrent"
    "back hCurrent" "back TotalCurrent" "back Charge" "front OuterVoltage" "front InnerVoltage"
    "front QuasiFermiPotential" "front DisplacementCurrent" "front eCurrent" "front hCurrent" "front TotalCurrent"
    "front Charge" "Stripe0 R_TE" "Stripe0 T_TE" "Stripe0 A_TE" "Stripe0 R_TM"
    "Stripe0 T_TM" "Stripe0 A_TM" "Stripe0 R_Total" "Stripe0 T_Total" "Stripe0 A_Total" ]
  functions = [
    Time
    OuterVoltage InnerVoltage QuasiFermiPotential DisplacementCurrent eCurrent
    hCurrent TotalCurrent Charge OuterVoltage InnerVoltage
    QuasiFermiPotential DisplacementCurrent eCurrent hCurrent TotalCurrent
    Charge R_TE T_TE A_TE R_TM
    T_TM A_TM R_Total T_Total A_Total ]
}

Data {
      0.00000000000000E+00
      0.00000000000000E+00   0.00000000000000E+00   0.00000000000000E+00   0.00000000000000E+00   5.51537692271006E+01
     -5.51537692271006E+01   4.05034198434896E-17   1.19878439192885E-22   0.00000000000000E+00   0.00000000000000E+00
      0.00000000000000E+00   0.00000000000000E+00   6.25489226543793E+01  -6.25489226543793E+01   1.28260829504384E-16
      1.09322332249373E-22   9.63034147047597E-01   8.51683796906740E-19   3.69658529524044E-02   9.63034147047597E-01
      8.51683796906740E-19   3.69658529524044E-02   9.63034147047597E-01   8.51683796906740E-19   3.69658529524044E-02
      1.25000000000000E-03
      0.00000000000000E+00   0.00000000000000E+00   0.00000000000000E+00  -8.31349510785744E-03   9.67583322457200E+01
      1.31847069803026E-19   9.67500187506121E+01   3.12817990991226E-22   0.00000000000000E+00   0.00000000000000E+00
      0.00000000000000E+00  -1.36778008058251E-02  -9.67583322466337E+01  -3.98178150805139E-17  -9.67720100474395E+01
     -2.00915697062731E-23   9.63034147047597E-01   8.51683796906740E-19   3.69658529524044E-02   9.63034147047597E-01
      8.51683796906740E-19   3.69658529524044E-02   9.63034147047597E-01   8.51683796906740E-19   3.69658529524044E-02
      3.75000000000000E-03
      0.00000000000000E+00   0.00000000000000E+00   0.00000000000000E+00  -1.37943752193411E-05   9.67505682290493E+01
     -1.39757893991208E-18   9.67505544346741E+01   1.97721458793342E-22   0.00000000000000E+00   0.00000000000000E+00
      0.00000000000000E+00  -2.72841594374708E-05  -9.67505682286367E+01   3.08522143339081E-17  -9.67505955127962E+01
      1.24556391687996E-23   9.63034147047597E-01   8.51683796906740E-19   3.69658529524044E-02   9.63034147047597E-01
      8.51683796906740E-19   3.69658529524044E-02   9.63034147047597E-01   8.51683796906740E-19   3.69658529524044E-02
      8.75000000000000E-03
      0.00000000000000E+00   0.00000000000000E+00   0.00000000000000E+00  -1.26299675584892E-08   9.67505554359936E+01
     -6.32865935054525E-19   9.67505554233636E+01  -3.98996271401152E-23   0.00000000000000E+00   0.00000000000000E+00
      0.00000000000000E+00  -2.52821238286978E-08  -9.67505554360746E+01  -3.98705539084351E-17  -9.67505554613567E+01
      1.06317102161605E-22   9.63034147047597E-01   8.51683796906740E-19   3.69658529524044E-02   9.63034147047597E-01
      8.51683796906740E-19   3.69658529524044E-02   9.63034147047597E-01   8.51683796906740E-19   3.69658529524044E-02
      1.87500000000000E-02
      0.00000000000000E+00   0.00000000000000E+00   0.00000000000000E+00   2.39412393414440E-10   9.67505554240391E+01
      3.03248260546960E-19   9.67505554242785E+01  -3.91861212544974E-22   0.00000000000000E+00   0.00000000000000E+00
      0.00000000000000E+00   8.15289962744616E-12  -9.67505554243042E+01  -6.23372946028707E-17  -9.67505554242960E+01
      1.10513083793583E-22   9.63034147047597E-01   8.51683796906740E-19   3.69658529524044E-02   9.63034147047597E-01
      8.51683796906740E-19   3.69658529524044E-02   9.63034147047597E-01   8.51683796906740E-19   3.69658529524044E-02
      3.87500000000000E-02
      0.00000000000000E+00   0.00000000000000E+00   0.00000000000000E+00  -6.49540315429993E-11   9.67505554243439E+01
     -1.95133663308479E-18   9.67505554242789E+01  -2.60349319773338E-22   0.00000000000000E+00   0.00000000000000E+00
      0.00000000000000E+00   6.48868836234688E-12  -9.67505554242854E+01   1.42922223666480E-17  -9.67505554242789E+01
      1.30132133045805E-22   9.63034147047597E-01   8.51683796906740E-19   3.69658529524044E-02   9.63034147047597E-01
      8.51683796906740E-19   3.69658529524044E-02   9.63034147047597E-01   8.51683796906740E-19   3.69658529524044E-02
      7.87500000000000E-02
      0.00000000000000E+00   0.00000000000000E+00   0.00000000000000E+00  -7.16700277977359E-10   9.67505554249956E+01
      4.61464744310591E-19   9.67505554242789E+01  -2.56682561049898E-22   0.00000000000000E+00   0.00000000000000E+00
      0.00000000000000E+00  -4.62653013390250E-12  -9.67505554242743E+01  -5.01018865251499E-18  -9.67505554242789E+01
      1.36917526765985E-22   9.63034147047597E-01   8.51683796906740E-19   3.69658529524044E-02   9.63034147047597E-01
      8.51683796906740E-19   3.69658529524044E-02   9.63034147047597E-01   8.51683796906740E-19   3.69658529524044E-02
      1.00000000000000E-01
      0.00000000000000E+00   0.00000000000000E+00   0.00000000000000E+00  -7.04166595965340E-10   9.67505554249831E+01
     -2.76878846586355E-18   9.67505554242789E+01  -7.40628559680443E-23   0.00000000000000E+00   0.00000000000000E+00
      0.00000000000000E+00  -1.57364494327224E-11  -9.67505554242632E+01   3.66007465773200E-17  -9.67505554242789E+01
      1.61809904285422E-22   9.63034147047597E-01   8.51683796906740E-19   3.69658529524044E-02   9.63034147047597E-01
      8.51683796906740E-19   3.69658529524044E-02   9.63034147047597E-01   8.51683796906740E-19   3.69658529524044E-02
      0.00000000000000E+00
      0.00000000000000E+00   0.00000000000000E+00   0.00000000000000E+00   0.00000000000000E+00   9.67505554242789E+01
     -9.71362685669138E-18   9.67505554242789E+01  -2.79061129753781E-22   0.00000000000000E+00   0.00000000000000E+00
      0.00000000000000E+00   0.00000000000000E+00  -9.67505554242743E+01  -4.59737716872443E-12  -9.67505554242789E+01
      1.37446749674523E-22   9.63034147047597E-01   8.51683796906740E-19   3.69658529524044E-02   9.63034147047597E-01
      8.51683796906740E-19   3.69658529524044E-02   9.63034147047597E-01   8.51683796906740E-19   3.69658529524044E-02
      1.00000000000000E-03
      0.00000000000000E+00   0.00000000000000E+00   0.00000000000000E+00   0.00000000000000E+00   9.67494489896108E+01
      6.35348368165660E-18   9.67494489896108E+01  -1.47568137800308E-22   1.50000000000000E-03   1.50000000000000E-03
      0.00000000000000E+00   0.00000000000000E+00  -9.67494489896117E+01   8.48555517380817E-13  -9.67494489896108E+01
     -1.45536299847886E-23   9.63034147047597E-01   8.51683796906740E-19   3.69658529524044E-02   9.63034147047597E-01
      8.51683796906740E-19   3.69658529524044E-02   9.63034147047597E-01   8.51683796906740E-19   3.69658529524044E-02
      2.00000000000000E-03
      0.00000000000000E+00   0.00000000000000E+00   0.00000000000000E+00   0.00000000000000E+00   9.67483410687610E+01
      7.77485689744719E-19   9.67483410687610E+01   1.42200305442282E-22   3.00000000000000E-03   3.00000000000000E-03
      0.00000000000000E+00   0.00000000000000E+00  -9.67483410687052E+01  -5.57159158315399E-11  -9.67483410687610E+01
     -1.51660164932394E-22   9.63034147047597E-01   8.51683796906740E-19   3.69658529524044E-02   9.63034147047597E-01
      8.51683796906740E-19   3.69658529524044E-02   9.63034147047597E-01   8.51683796906740E-19   3.69658529524044E-02
      3.00000000000000E-03
      0.00000000000000E+00   0.00000000000000E+00   0.00000000000000E+00   0.00000000000000E+00   9.67472316591348E+01
     -9.57127322351343E-19   9.67472316591348E+01  -9.94183035324520E-23   4.50000000000000E-03   4.50000000000000E-03
      0.00000000000000E+00   0.00000000000000E+00  -9.67472316591328E+01  -2.00332353963904E-12  -9.67472316591348E+01
      6.15032622993534E-23   9.63034147047597E-01   8.51683796906740E-19   3.69658529524044E-02   9.63034147047597E-01
      8.51683796906740E-19   3.69658529524044E-02   9.63034147047597E-01   8.51683796906740E-19   3.69658529524044E-02
      4.00000000000000E-03
      0.00000000000000E+00   0.00000000000000E+00   0.00000000000000E+00   0.00000000000000E+00   9.67461207580835E+01
      1.86617166643389E-17   9.67461207580835E+01  -7.34202281505342E-23   6.00000000000000E-03   6.00000000000000E-03
      0.00000000000000E+00   0.00000000000000E+00  -9.67461207580883E+01   4.74468448419696E-12  -9.67461207580835E+01
     -3.63840749619715E-23   9.63034147047597E-01   8.51683796906740E-19   3.69658529524044E-02   9.63034147047597E-01
      8.51683796906740E-19   3.69658529524044E-02   9.63034147047597E-01   8.51683796906740E-19   3.69658529524044E-02
      5.00000000000000E-03
      0.00000000000000E+00   0.00000000000000E+00   0.00000000000000E+00   0.00000000000000E+00   9.67450083629010E+01
     -1.89406556213910E-18   9.67450083629010E+01   2.59697241546747E-23   7.50000000000000E-03   7.50000000000000E-03
      0.00000000000000E+00   0.00000000000000E+00  -9.67450083629220E+01   2.10038680398898E-11  -9.67450083629010E+01
     -2.98254910597356E-23   9.63034147047597E-01   8.51683796906740E-19   3.69658529524044E-02   9.63034147047597E-01
      8.51683796906740E-19   3.69658529524044E-02   9.63034147047597E-01   8.51683796906740E-19   3.69658529524044E-02
      6.00000000000000E-03
      0.00000000000000E+00   0.00000000000000E+00   0.00000000000000E+00   0.00000000000000E+00   9.67438944708206E+01
      6.88983344139438E-18   9.67438944708206E+01  -3.16305191942126E-23   9.00000000000000E-03   9.00000000000000E-03
      0.00000000000000E+00   0.00000000000000E+00  -9.67438944708253E+01   4.70794084258943E-12  -9.67438944708206E+01
      7.81548831001310E-23   9.63034147047597E-01   8.51683796906740E-19   3.69658529524044E-02   9.63034147047597E-01
      8.51683796906740E-19   3.69658529524044E-02   9.63034147047597E-01   8.51683796906740E-19   3.69658529524044E-02
      7.00000000000000E-03
      0.00000000000000E+00   0.00000000000000E+00   0.00000000000000E+00   0.00000000000000E+00   9.67427790790123E+01
      1.16404481752347E-17   9.67427790790123E+01  -1.70438127776404E-22   1.05000000000000E-02   1.05000000000000E-02
      0.00000000000000E+00   0.00000000000000E+00  -9.67427790790345E+01   2.22182649633075E-11  -9.67427790790123E+01
      4.07123623210839E-23   9.63034147047597E-01   8.51683796906740E-19   3.69658529524044E-02   9.63034147047597E-01
      8.51683796906740E-19   3.69658529524044E-02   9.63034147047597E-01   8.51683796906740E-19   3.69658529524044E-02
      8.00000000000000E-03
      0.00000000000000E+00   0.00000000000000E+00   0.00000000000000E+00   0.00000000000000E+00   9.67416621845797E+01
     -7.52074227150652E-18   9.67416621845797E+01  -1.79302611494412E-22   1.20000000000000E-02   1.20000000000000E-02
      0.00000000000000E+00   0.00000000000000E+00  -9.67416621846167E+01   3.69847846259634E-11  -9.67416621845797E+01
     -6.36201539335044E-23   9.63034147047597E-01   8.51683796906740E-19   3.69658529524044E-02   9.63034147047597E-01
      8.51683796906740E-19   3.69658529524044E-02   9.63034147047597E-01   8.51683796906740E-19   3.69658529524044E-02
      9.00000000000000E-03
      0.00000000000000E+00   0.00000000000000E+00   0.00000000000000E+00   0.00000000000000E+00   9.67405437845576E+01
      1.35193719254511E-17   9.67405437845576E+01  -4.39916542722019E-23   1.35000000000000E-02   1.35000000000000E-02
      0.00000000000000E+00   0.00000000000000E+00  -9.67405437846054E+01   4.77384351368100E-11  -9.67405437845576E+01
      4.02776435033565E-23   9.63034147047597E-01   8.51683796906740E-19   3.69658529524044E-02   9.63034147047597E-01
      8.51683796906740E-19   3.69658529524044E-02   9.63034147047597E-01   8.51683796906740E-19   3.69658529524044E-02
      1.00000000000000E-02
      0.00000000000000E+00   0.00000000000000E+00   0.00000000000000E+00   0.00000000000000E+00   9.67394238759092E+01
     -2.07226511741975E-18   9.67394238759092E+01   4.84049953130436E-23   1.50000000000000E-02   1.50000000000000E-02
      0.00000000000000E+00   0.00000000000000E+00  -9.67394238758946E+01  -1.47320215117904E-11  -9.67394238759093E+01
      1.52340594386229E-22   9.63034147047597E-01   8.51683796906740E-19   3.69658529524044E-02   9.63034147047597E-01
      8.51683796906740E-19   3.69658529524044E-02   9.63034147047597E-01   8.51683796906740E-19   3.69658529524044E-02
      1.10000000000000E-02
      0.00000000000000E+00   0.00000000000000E+00   0.00000000000000E+00   0.00000000000000E+00   9.67383024555237E+01
     -7.06916605743115E-18   9.67383024555237E+01   7.26452946058896E-23   1.65000000000000E-02   1.65000000000000E-02
      0.00000000000000E+00   0.00000000000000E+00  -9.67383024555150E+01  -8.66235894409310E-12  -9.67383024555237E+01
      4.04666516849771E-23   9.63034147047597E-01   8.51683796906740E-19   3.69658529524044E-02   9.63034147047597E-01
      8.51683796906740E-19   3.69658529524044E-02   9.63034147047597E-01   8.51683796906740E-19   3.69658529524044E-02
      1.20000000000000E-02
      0.00000000000000E+00   0.00000000000000E+00   0.00000000000000E+00   0.00000000000000E+00   9.67371795202139E+01
     -2.90135657432956E-18   9.67371795202139E+01  -2.67559981902165E-22   1.80000000000000E-02   1.80000000000000E-02
      0.00000000000000E+00   0.00000000000000E+00  -9.67371795202164E+01   2.48967093678827E-12  -9.67371795202139E+01
      1.80880829810944E-23   9.63034147047597E-01   8.51683796906740E-19   3.69658529524044E-02   9.63034147047597E-01
      8.51683796906740E-19   3.69658529524044E-02   9.63034147047597E-01   8.51683796906740E-19   3.69658529524044E-02
      1.30000000000000E-02
      0.00000000000000E+00   0.00000000000000E+00   0.00000000000000E+00   0.00000000000000E+00   9.67360550667144E+01
      1.16303536339529E-17   9.67360550667144E+01  -1.52813114840280E-23   1.95000000000000E-02   1.95000000000000E-02
      0.00000000000000E+00   0.00000000000000E+00  -9.67360550667434E+01   2.90381923013301E-11  -9.67360550667144E+01
      6.65308799304622E-24   9.63034147047597E-01   8.51683796906740E-19   3.69658529524044E-02   9.63034147047597E-01
      8.51683796906740E-19   3.69658529524044E-02   9.63034147047597E-01   8.51683796906740E-19   3.69658529524044E-02
      1.40000000000000E-02
      0.00000000000000E+00   0.00000000000000E+00   0.00000000000000E+00   0.00000000000000E+00   9.67349290916794E+01
     -4.70251115446684E-18   9.67349290916794E+01   3.59115545079199E-25   2.10000000000000E-02   2.10000000000000E-02
      0.00000000000000E+00   0.00000000000000E+00  -9.67349290917288E+01   4.93801747021169E-11  -9.67349290916794E+01
     -1.28903579865270E-23   9.63034147047597E-01   8.51683796906740E-19   3.69658529524044E-02   9.63034147047597E-01
      8.51683796906740E-19   3.69658529524044E-02   9.63034147047597E-01   8.51683796906740E-19   3.69658529524044E-02
      1.50000000000000E-02
      0.00000000000000E+00   0.00000000000000E+00   0.00000000000000E+00   0.00000000000000E+00   9.67338015916812E+01
      7.27002682783420E-18   9.67338015916812E+01  -1.81391151901320E-22   2.25000000000000E-02   2.25000000000000E-02
      0.00000000000000E+00   0.00000000000000E+00  -9.67338015917020E+01   2.08513835605153E-11  -9.67338015916812E+01
     -1.86154158078160E-22   9.63034147047597E-01   8.51683796906740E-19   3.69658529524044E-02   9.63034147047597E-01
      8.51683796906740E-19   3.69658529524044E-02   9.63034147047597E-01   8.51683796906740E-19   3.69658529524044E-02
      1.60000000000000E-02
      0.00000000000000E+00   0.00000000000000E+00   0.00000000000000E+00   0.00000000000000E+00   9.67326725632083E+01
      1.53313420855331E-18   9.67326725632083E+01   2.74449330122237E-22   2.40000000000000E-02   2.40000000000000E-02
      0.00000000000000E+00   0.00000000000000E+00  -9.67326725632509E+01   4.26666161025897E-11  -9.67326725632082E+01
      9.48632063553948E-23   9.63034147047597E-01   8.51683796906740E-19   3.69658529524044E-02   9.63034147047597E-01
      8.51683796906740E-19   3.69658529524044E-02   9.63034147047597E-01   8.51683796906740E-19   3.69658529524044E-02
      1.70000000000000E-02
      0.00000000000000E+00   0.00000000000000E+00   0.00000000000000E+00   0.00000000000000E+00   9.67315420026640E+01
     -8.81881787592662E-18   9.67315420026640E+01  -2.84164350657538E-22   2.55000000000000E-02   2.55000000000000E-02
      0.00000000000000E+00   0.00000000000000E+00  -9.67315420026722E+01   8.28533515132282E-12  -9.67315420026639E+01
      4.52107570436550E-23   9.63034147047597E-01   8.51683796906740E-19   3.69658529524044E-02   9.63034147047597E-01
      8.51683796906740E-19   3.69658529524044E-02   9.63034147047597E-01   8.51683796906740E-19   3.69658529524044E-02
      1.80000000000000E-02
      0.00000000000000E+00   0.00000000000000E+00   0.00000000000000E+00   0.00000000000000E+00   9.67304099063655E+01
     -2.62231461175425E-18   9.67304099063655E+01   2.10895329052300E-22   2.70000000000000E-02   2.70000000000000E-02
      0.00000000000000E+00   0.00000000000000E+00  -9.67304099064118E+01   4.63745917237106E-11  -9.67304099063655E+01
      1.60278938014295E-23   9.63034147047597E-01   8.51683796906740E-19   3.69658529524044E-02   9.63034147047597E-01
      8.51683796906740E-19   3.69658529524044E-02   9.63034147047597E-01   8.51683796906740E-19   3.69658529524044E-02
      1.90000000000000E-02
      0.00000000000000E+00   0.00000000000000E+00   0.00000000000000E+00   0.00000000000000E+00   9.67292762705428E+01
     -5.75254945882000E-18   9.67292762705428E+01   1.67054881325395E-22   2.85000000000000E-02   2.85000000000000E-02
      0.00000000000000E+00   0.00000000000000E+00  -9.67292762705966E+01   5.37415983184639E-11  -9.67292762705428E+01
      1.62925052556984E-23   9.63034147047597E-01   8.51683796906740E-19   3.69658529524044E-02   9.63034147047597E-01
      8.51683796906740E-19   3.69658529524044E-02   9.63034147047597E-01   8.51683796906740E-19   3.69658529524044E-02
      2.00000000000000E-02
      0.00000000000000E+00   0.00000000000000E+00   0.00000000000000E+00   0.00000000000000E+00   9.67281410913375E+01
      6.67166774307969E-19   9.67281410913375E+01  -4.54526875161294E-22   3.00000000000000E-02   3.00000000000000E-02
      0.00000000000000E+00   0.00000000000000E+00  -9.67281410913866E+01   4.90434904589392E-11  -9.67281410913376E+01
     -6.69466979300275E-23   9.63034147047597E-01   8.51683796906740E-19   3.69658529524044E-02   9.63034147047597E-01
      8.51683796906740E-19   3.69658529524044E-02   9.63034147047597E-01   8.51683796906740E-19   3.69658529524044E-02
      2.10000000000000E-02
      0.00000000000000E+00   0.00000000000000E+00   0.00000000000000E+00   0.00000000000000E+00   9.67270043648029E+01
     -1.84668302142863E-18   9.67270043648029E+01   4.12604860477838E-23   3.15000000000000E-02   3.15000000000000E-02
      0.00000000000000E+00   0.00000000000000E+00  -9.67270043648476E+01   4.46774071125157E-11  -9.67270043648029E+01
      1.20662823146611E-22   9.63034147047597E-01   8.51683796906740E-19   3.69658529524044E-02   9.63034147047597E-01
      8.51683796906740E-19   3.69658529524044E-02   9.63034147047597E-01   8.51683796906740E-19   3.69658529524044E-02
      2.20000000000000E-02
      0.00000000000000E+00   0.00000000000000E+00   0.00000000000000E+00   0.00000000000000E+00   9.67258660869027E+01
      7.84387059804722E-19   9.67258660869027E+01   2.93435201966030E-23   3.30000000000000E-02   3.30000000000000E-02
      0.00000000000000E+00   0.00000000000000E+00  -9.67258660869390E+01   3.62571307785197E-11  -9.67258660869028E+01
      2.20005523406415E-23   9.63034147047597E-01   8.51683796906740E-19   3.69658529524044E-02   9.63034147047597E-01
      8.51683796906740E-19   3.69658529524044E-02   9.63034147047597E-01   8.51683796906740E-19   3.69658529524044E-02
      2.30000000000000E-02
      0.00000000000000E+00   0.00000000000000E+00   0.00000000000000E+00   0.00000000000000E+00   9.67247262535118E+01
     -6.01480152110008E-18   9.67247262535118E+01   2.49490799739233E-22   3.45000000000000E-02   3.45000000000000E-02
      0.00000000000000E+00   0.00000000000000E+00  -9.67247262535163E+01   4.45908297497864E-12  -9.67247262535118E+01
     -1.84868902443139E-22   9.63034147047597E-01   8.51683796906740E-19   3.69658529524044E-02   9.63034147047597E-01
      8.51683796906740E-19   3.69658529524044E-02   9.63034147047597E-01   8.51683796906740E-19   3.69658529524044E-02
      2.40000000000000E-02
      0.00000000000000E+00   0.00000000000000E+00   0.00000000000000E+00   0.00000000000000E+00   9.67235848604154E+01
      1.37927485842458E-17   9.67235848604154E+01   2.50388588601931E-22   3.60000000000000E-02   3.60000000000000E-02
      0.00000000000000E+00   0.00000000000000E+00  -9.67235848604357E+01   2.03621230279042E-11  -9.67235848604153E+01
     -6.28263195706978E-23   9.63034147047597E-01   8.51683796906740E-19   3.69658529524044E-02   9.63034147047597E-01
      8.51683796906740E-19   3.69658529524044E-02   9.63034147047597E-01   8.51683796906740E-19   3.69658529524044E-02
      2.50000000000000E-02
      0.00000000000000E+00   0.00000000000000E+00   0.00000000000000E+00   0.00000000000000E+00   9.67224419033097E+01
     -8.35230586097514E-18   9.67224419033097E+01  -2.29493734123770E-22   3.75000000000000E-02   3.75000000000000E-02
      0.00000000000000E+00   0.00000000000000E+00  -9.67224419033520E+01   4.22624586434946E-11  -9.67224419033097E+01
      1.59409500378840E-22   9.63034147047597E-01   8.51683796906740E-19   3.69658529524044E-02   9.63034147047597E-01
      8.51683796906740E-19   3.69658529524044E-02   9.63034147047597E-01   8.51683796906740E-19   3.69658529524044E-02
      2.60000000000000E-02
      0.00000000000000E+00   0.00000000000000E+00   0.00000000000000E+00   0.00000000000000E+00   9.67212973778025E+01
     -1.12840490646734E-17   9.67212973778025E+01  -2.48035436740754E-22   3.90000000000000E-02   3.90000000000000E-02
      0.00000000000000E+00   0.00000000000000E+00  -9.67212973777449E+01  -5.75665552168337E-11  -9.67212973778024E+01
      5.35460178531248E-23   9.63034147047597E-01   8.51683796906740E-19   3.69658529524044E-02   9.63034147047597E-01
      8.51683796906740E-19   3.69658529524044E-02   9.63034147047597E-01   8.51683796906740E-19   3.69658529524044E-02
      2.70000000000000E-02
      0.00000000000000E+00   0.00000000000000E+00   0.00000000000000E+00   0.00000000000000E+00   9.67201512794133E+01
     -6.21319015894432E-18   9.67201512794133E+01   8.87771429072105E-23   4.05000000000000E-02   4.05000000000000E-02
      0.00000000000000E+00   0.00000000000000E+00  -9.67201512793396E+01  -7.37239863938381E-11  -9.67201512794133E+01
     -2.27754858852861E-23   9.63034147047597E-01   8.51683796906740E-19   3.69658529524044E-02   9.63034147047597E-01
      8.51683796906740E-19   3.69658529524044E-02   9.63034147047597E-01   8.51683796906740E-19   3.69658529524044E-02
      2.80000000000000E-02
      0.00000000000000E+00   0.00000000000000E+00   0.00000000000000E+00   0.00000000000000E+00   9.67190036035746E+01
     -4.71291471231848E-18   9.67190036035746E+01   4.13124632977294E-22   4.20000000000000E-02   4.20000000000000E-02
      0.00000000000000E+00   0.00000000000000E+00  -9.67190036036024E+01   2.78373132805671E-11  -9.67190036035745E+01
      1.58766872561330E-22   9.63034147047597E-01   8.51683796906740E-19   3.69658529524044E-02   9.63034147047597E-01
      8.51683796906740E-19   3.69658529524044E-02   9.63034147047597E-01   8.51683796906740E-19   3.69658529524044E-02
      2.90000000000000E-02
      0.00000000000000E+00   0.00000000000000E+00   0.00000000000000E+00   0.00000000000000E+00   9.67178543456327E+01
      1.37458810711517E-17   9.67178543456327E+01   1.27268659094252E-22   4.35000000000000E-02   4.35000000000000E-02
      0.00000000000000E+00   0.00000000000000E+00  -9.67178543456598E+01   2.70465095444282E-11  -9.67178543456327E+01
      2.83890288794188E-23   9.63034147047597E-01   8.51683796906740E-19   3.69658529524044E-02   9.63034147047597E-01
      8.51683796906740E-19   3.69658529524044E-02   9.63034147047597E-01   8.51683796906740E-19   3.69658529524044E-02
      3.00000000000000E-02
      0.00000000000000E+00   0.00000000000000E+00   0.00000000000000E+00   0.00000000000000E+00   9.67167035008493E+01
      2.08761294038901E-18   9.67167035008493E+01  -3.36784228420722E-22   4.50000000000000E-02   4.50000000000000E-02
      0.00000000000000E+00   0.00000000000000E+00  -9.67167035008939E+01   4.46214516849725E-11  -9.67167035008493E+01
      1.00023129713638E-22   9.63034147047597E-01   8.51683796906740E-19   3.69658529524044E-02   9.63034147047597E-01
      8.51683796906740E-19   3.69658529524044E-02   9.63034147047597E-01   8.51683796906740E-19   3.69658529524044E-02
      3.10000000000000E-02
      0.00000000000000E+00   0.00000000000000E+00   0.00000000000000E+00   0.00000000000000E+00   9.67155510644024E+01
     -8.11796829550491E-18   9.67155510644024E+01  -8.51481858200943E-24   4.65000000000000E-02   4.65000000000000E-02
      0.00000000000000E+00   0.00000000000000E+00  -9.67155510643736E+01  -2.87691573138052E-11  -9.67155510644024E+01
      4.32261711366383E-23   9.63034147047597E-01   8.51683796906740E-19   3.69658529524044E-02   9.63034147047597E-01
      8.51683796906740E-19   3.69658529524044E-02   9.63034147047597E-01   8.51683796906740E-19   3.69658529524044E-02
      3.20000000000000E-02
      0.00000000000000E+00   0.00000000000000E+00   0.00000000000000E+00   0.00000000000000E+00   9.67143970313886E+01
      1.95978308599404E-18   9.67143970313886E+01  -2.96742845144391E-23   4.80000000000000E-02   4.80000000000000E-02
      0.00000000000000E+00   0.00000000000000E+00  -9.67143970314117E+01   2.31345754702747E-11  -9.67143970313886E+01
     -8.95520764518550E-23   9.63034147047597E-01   8.51683796906740E-19   3.69658529524044E-02   9.63034147047597E-01
      8.51683796906740E-19   3.69658529524044E-02   9.63034147047597E-01   8.51683796906740E-19   3.69658529524044E-02
      3.30000000000000E-02
      0.00000000000000E+00   0.00000000000000E+00   0.00000000000000E+00   0.00000000000000E+00   9.67132413968245E+01
     -4.37371752414554E-18   9.67132413968245E+01   1.74067084863520E-22   4.95000000000000E-02   4.95000000000000E-02
      0.00000000000000E+00   0.00000000000000E+00  -9.67132413967978E+01  -2.66761551557517E-11  -9.67132413968244E+01
     -7.88542133721273E-23   9.63034147047597E-01   8.51683796906740E-19   3.69658529524044E-02   9.63034147047597E-01
      8.51683796906740E-19   3.69658529524044E-02   9.63034147047597E-01   8.51683796906740E-19   3.69658529524044E-02
      3.40000000000000E-02
      0.00000000000000E+00   0.00000000000000E+00   0.00000000000000E+00   0.00000000000000E+00   9.67120841556489E+01
     -2.24387231921025E-18   9.67120841556489E+01  -2.07530983419453E-22   5.10000000000000E-02   5.10000000000000E-02
      0.00000000000000E+00   0.00000000000000E+00  -9.67120841556537E+01   4.85868601766825E-12  -9.67120841556488E+01
     -1.98004971065773E-22   9.63034147047597E-01   8.51683796906740E-19   3.69658529524044E-02   9.63034147047597E-01
      8.51683796906740E-19   3.69658529524044E-02   9.63034147047597E-01   8.51683796906740E-19   3.69658529524044E-02
      3.50000000000000E-02
      0.00000000000000E+00   0.00000000000000E+00   0.00000000000000E+00   0.00000000000000E+00   9.67109253027252E+01
     -1.90110083937937E-17   9.67109253027252E+01   1.39402984354296E-22   5.25000000000000E-02   5.25000000000000E-02
      0.00000000000000E+00   0.00000000000000E+00  -9.67109253027040E+01  -2.11582677759467E-11  -9.67109253027252E+01
     -8.89472502706690E-23   9.63034147047597E-01   8.51683796906740E-19   3.69658529524044E-02   9.63034147047597E-01
      8.51683796906740E-19   3.69658529524044E-02   9.63034147047597E-01   8.51683796906740E-19   3.69658529524044E-02
      3.60000000000000E-02
      0.00000000000000E+00   0.00000000000000E+00   0.00000000000000E+00   0.00000000000000E+00   9.67097648328436E+01
      6.45226597848559E-18   9.67097648328436E+01   8.42220457301532E-23   5.40000000000000E-02   5.40000000000000E-02
      0.00000000000000E+00   0.00000000000000E+00  -9.67097648329058E+01   6.22647150892034E-11  -9.67097648328436E+01
      7.16341008342192E-24   9.63034147047597E-01   8.51683796906740E-19   3.69658529524044E-02   9.63034147047597E-01
      8.51683796906740E-19   3.69658529524044E-02   9.63034147047597E-01   8.51683796906740E-19   3.69658529524044E-02
      3.70000000000000E-02
      0.00000000000000E+00   0.00000000000000E+00   0.00000000000000E+00   0.00000000000000E+00   9.67086027407237E+01
     -2.66866709723188E-18   9.67086027407237E+01   1.16381787832904E-22   5.55000000000000E-02   5.55000000000000E-02
      0.00000000000000E+00   0.00000000000000E+00  -9.67086027407014E+01  -2.23475643233392E-11  -9.67086027407237E+01
     -5.59464217597068E-23   9.63034147047597E-01   8.51683796906740E-19   3.69658529524044E-02   9.63034147047597E-01
      8.51683796906740E-19   3.69658529524044E-02   9.63034147047597E-01   8.51683796906740E-19   3.69658529524044E-02
      3.80000000000000E-02
      0.00000000000000E+00   0.00000000000000E+00   0.00000000000000E+00   0.00000000000000E+00   9.67074390210176E+01
      2.43381450414523E-18   9.67074390210176E+01  -2.12530249823319E-22   5.70000000000000E-02   5.70000000000000E-02
      0.00000000000000E+00   0.00000000000000E+00  -9.67074390210342E+01   1.66123826233279E-11  -9.67074390210176E+01