DF-ISE text

Info {
  version   = 1.0
  type      = xyplot
  datasets  = [
    "time"
    "back OuterVoltage" "back InnerVoltage" "back QuasiFermiPotential" "back DisplacementCurrent" "back eCurrent"
    "back hCurrent" "back TotalCurrent" "back Charge" "front OuterVoltage" "front InnerVoltage"
    "front QuasiFermiPotential" "front DisplacementCurrent" "front eCurrent" "front hCurrent" "front TotalCurrent"
    "front Charge" "Stripe0 R_TE" "Stripe0 T_TE" "Stripe0 A_TE" "Stripe0 R_TM"
    "Stripe0 T_TM" "Stripe0 A_TM" "Stripe0 R_Total" "Stripe0 T_Total" "Stripe0 A_Total" ]
  functions = [
    Time
    OuterVoltage InnerVoltage QuasiFermiPotential DisplacementCurrent eCurrent
    hCurrent TotalCurrent Charge OuterVoltage InnerVoltage
    QuasiFermiPotential DisplacementCurrent eCurrent hCurrent TotalCurrent
    Charge R_TE T_TE A_TE R_TM
    T_TM A_TM R_Total T_Total A_Total ]
}

Data {
      0.00000000000000E+00
      0.00000000000000E+00   0.00000000000000E+00   0.00000000000000E+00   0.00000000000000E+00   5.51537692271006E+02
     -5.51537692271006E+02   2.70022798956597E-16   1.19878439192885E-22   0.00000000000000E+00   0.00000000000000E+00
      0.00000000000000E+00   0.00000000000000E+00   6.25489226542194E+02  -6.25489226542194E+02  -9.18077516452431E-16
      1.09322332249373E-22   9.63034147047597E-01   8.51683796906740E-19   3.69658529524044E-02   9.63034147047597E-01
      8.51683796906740E-19   3.69658529524044E-02   9.63034147047597E-01   8.51683796906740E-19   3.69658529524044E-02
      3.12500000000000E-04
      0.00000000000000E+00   0.00000000000000E+00   0.00000000000000E+00  -4.07109488433437E-02   9.67920912973305E+02
      1.66654696231025E-17   9.67880202024462E+02  -1.00410596485960E-22   0.00000000000000E+00   0.00000000000000E+00
      0.00000000000000E+00  -7.40769965141285E-02  -9.67920912856905E+02   1.48090628802759E-16  -9.67994989853419E+02
      7.54709669211180E-23   9.63034147047597E-01   8.51683796906740E-19   3.69658529524044E-02   9.63034147047597E-01
      8.51683796906740E-19   3.69658529524044E-02   9.63034147047597E-01   8.51683796906740E-19   3.69658529524044E-02
      9.37500000000000E-04
      0.00000000000000E+00   0.00000000000000E+00   0.00000000000000E+00  -2.93342546810931E-05   9.67883038838928E+02
     -2.74241905190294E-18   9.67883009504674E+02   4.55103350115237E-22   0.00000000000000E+00   0.00000000000000E+00
      0.00000000000000E+00  -6.57602108064102E-05  -9.67883038839132E+02  -1.08431030206009E-16  -9.67883104599343E+02
     -1.26257465322582E-23   9.63034147047597E-01   8.51683796906740E-19   3.69658529524044E-02   9.63034147047597E-01
      8.51683796906740E-19   3.69658529524044E-02   9.63034147047597E-01   8.51683796906740E-19   3.69658529524044E-02
      2.18750000000000E-03
      0.00000000000000E+00   0.00000000000000E+00   0.00000000000000E+00  -1.15845564100688E-08   9.67883011818090E+02
      3.52295370513686E-17   9.67883011806506E+02  -2.22774493267157E-22   0.00000000000000E+00   0.00000000000000E+00
      0.00000000000000E+00  -2.73706896057627E-08  -9.67883011818605E+02  -1.75514819321788E-16  -9.67883011845975E+02
      3.23203990571279E-24   9.63034147047597E-01   8.51683796906740E-19   3.69658529524044E-02   9.63034147047597E-01
      8.51683796906740E-19   3.69658529524044E-02   9.63034147047597E-01   8.51683796906740E-19   3.69658529524044E-02
      4.68750000000000E-03
      0.00000000000000E+00   0.00000000000000E+00   0.00000000000000E+00  -3.91656566915309E-10   9.67883011807853E+02
     -3.33309392462050E-17   9.67883011807461E+02   5.64576888909906E-22   0.00000000000000E+00   0.00000000000000E+00
      0.00000000000000E+00  -3.81963990537642E-11  -9.67883011807431E+02  -4.02924645318048E-16  -9.67883011807469E+02
      7.67562225561383E-23   9.63034147047597E-01   8.51683796906740E-19   3.69658529524044E-02   9.63034147047597E-01
      8.51683796906740E-19   3.69658529524044E-02   9.63034147047597E-01   8.51683796906740E-19   3.69658529524044E-02
      9.68750000000000E-03
      0.00000000000000E+00   0.00000000000000E+00   0.00000000000000E+00  -3.34308638831869E-10   9.67883011807796E+02
     -2.54201150580234E-17   9.67883011807461E+02  -1.37975972583061E-23   0.00000000000000E+00   0.00000000000000E+00
      0.00000000000000E+00  -1.45970544796751E-11  -9.67883011807447E+02   5.05448926796881E-16  -9.67883011807462E+02
     -1.16240031696688E-23   9.63034147047597E-01   8.51683796906740E-19   3.69658529524044E-02   9.63034147047597E-01
      8.51683796906740E-19   3.69658529524044E-02   9.63034147047597E-01   8.51683796906740E-19   3.69658529524044E-02
      1.96875000000000E-02
      0.00000000000000E+00   0.00000000000000E+00   0.00000000000000E+00  -3.39793287919715E-10   9.67883011807801E+02
     -1.33956622919875E-17   9.67883011807461E+02  -1.11855041883089E-22   0.00000000000000E+00   0.00000000000000E+00
      0.00000000000000E+00   1.86745607575991E-11  -9.67883011807480E+02   2.70866620203337E-16  -9.67883011807462E+02
      3.23203990571279E-24   9.63034147047597E-01   8.51683796906740E-19   3.69658529524044E-02   9.63034147047597E-01
      8.51683796906740E-19   3.69658529524044E-02   9.63034147047597E-01   8.51683796906740E-19   3.69658529524044E-02
      3.96875000000000E-02
      0.00000000000000E+00   0.00000000000000E+00   0.00000000000000E+00  -3.39793611947074E-10   9.67883011807801E+02
     -1.31847069803026E-17   9.67883011807461E+02   9.99097248046656E-23   0.00000000000000E+00   0.00000000000000E+00
      0.00000000000000E+00   7.63019624379595E-12  -9.67883011807469E+02   3.50185817396837E-17  -9.67883011807461E+02
      1.83904960716874E-23   9.63034147047597E-01   8.51683796906740E-19   3.69658529524044E-02   9.63034147047597E-01
      8.51683796906740E-19   3.69658529524044E-02   9.63034147047597E-01   8.51683796906740E-19   3.69658529524044E-02
      7.96875000000000E-02
      0.00000000000000E+00   0.00000000000000E+00   0.00000000000000E+00  -3.39793557942514E-10   9.67883011807801E+02
     -3.54404923630534E-17   9.67883011807461E+02   2.94058928965378E-22   0.00000000000000E+00   0.00000000000000E+00
      0.00000000000000E+00   1.87283492991513E-11  -9.67883011807480E+02   3.27824554358244E-16  -9.67883011807461E+02
      3.69889011431575E-23   9.63034147047597E-01   8.51683796906740E-19   3.69658529524044E-02   9.63034147047597E-01
      8.51683796906740E-19   3.69658529524044E-02   9.63034147047597E-01   8.51683796906740E-19   3.69658529524044E-02
      1.00000000000000E-01
      0.00000000000000E+00   0.00000000000000E+00   0.00000000000000E+00  -3.27259747669667E-10   9.67883011807789E+02
     -9.59846668166030E-18   9.67883011807461E+02  -1.15408395697557E-22   0.00000000000000E+00   0.00000000000000E+00
      0.00000000000000E+00   7.67226579587339E-12  -9.67883011807469E+02   1.43027701322323E-16  -9.67883011807461E+02
      1.47237373482472E-23   9.63034147047597E-01   8.51683796906740E-19   3.69658529524044E-02   9.63034147047597E-01
      8.51683796906740E-19   3.69658529524044E-02   9.63034147047597E-01   8.51683796906740E-19   3.69658529524044E-02
      0.00000000000000E+00
      0.00000000000000E+00   0.00000000000000E+00   0.00000000000000E+00   0.00000000000000E+00   9.67883011807461E+02
      1.12337823693110E-16   9.67883011807461E+02   9.13665549954131E-23   0.00000000000000E+00   0.00000000000000E+00
      0.00000000000000E+00   0.00000000000000E+00  -9.67883011807480E+02   1.87505428922712E-11  -9.67883011807461E+02
      2.00537680699490E-23   9.63034147047597E-01   8.51683796906740E-19   3.69658529524044E-02   9.63034147047597E-01
      8.51683796906740E-19   3.69658529524044E-02   9.63034147047597E-01   8.51683796906740E-19   3.69658529524044E-02
      1.00000000000000E-03
      0.00000000000000E+00   0.00000000000000E+00   0.00000000000000E+00   0.00000000000000E+00   9.67872468138757E+02
     -5.92800906718131E-17   9.67872468138757E+02   1.78830091040360E-22   1.50000000000000E-03   1.50000000000000E-03
      0.00000000000000E+00   0.00000000000000E+00  -9.67872468138831E+02   7.43344426582023E-11  -9.67872468138757E+02
      1.08301688068622E-23   9.63034147047597E-01   8.51683796906740E-19   3.69658529524044E-02   9.63034147047597E-01
      8.51683796906740E-19   3.69658529524044E-02   9.63034147047597E-01   8.51683796906740E-19   3.69658529524044E-02
      2.00000000000000E-03
      0.00000000000000E+00   0.00000000000000E+00   0.00000000000000E+00   0.00000000000000E+00   9.67861910738378E+02
     -1.22713364042421E-16   9.67861910738378E+02  -4.84777634629676E-22   3.00000000000000E-03   3.00000000000000E-03
      0.00000000000000E+00   0.00000000000000E+00  -9.67861910738378E+02   2.62423753534379E-13  -9.67861910738378E+02
     -3.66864880525645E-23   9.63034147047597E-01   8.51683796906740E-19   3.69658529524044E-02   9.63034147047597E-01
      8.51683796906740E-19   3.69658529524044E-02   9.63034147047597E-01   8.51683796906740E-19   3.69658529524044E-02
      3.00000000000000E-03
      0.00000000000000E+00   0.00000000000000E+00   0.00000000000000E+00   0.00000000000000E+00   9.67851339581283E+02
      5.90988009508339E-17   9.67851339581283E+02  -3.92002968681189E-23   4.50000000000000E-03   4.50000000000000E-03
      0.00000000000000E+00   0.00000000000000E+00  -9.67851339581374E+02   9.14955426227370E-11  -9.67851339581283E+02
     -1.07772465160084E-22   9.63034147047597E-01   8.51683796906740E-19   3.69658529524044E-02   9.63034147047597E-01
      8.51683796906740E-19   3.69658529524044E-02   9.63034147047597E-01   8.51683796906740E-19   3.69658529524044E-02
      4.00000000000000E-03
      0.00000000000000E+00   0.00000000000000E+00   0.00000000000000E+00   0.00000000000000E+00   9.67840754642238E+02
     -5.96995291626239E-17   9.67840754642238E+02   1.77488132950854E-22   6.00000000000000E-03   6.00000000000000E-03
      0.00000000000000E+00   0.00000000000000E+00  -9.67840754642217E+02  -2.03993497126771E-11  -9.67840754642238E+02
      7.15773983797330E-23   9.63034147047597E-01   8.51683796906740E-19   3.69658529524044E-02   9.63034147047597E-01
      8.51683796906740E-19   3.69658529524044E-02   9.63034147047597E-01   8.51683796906740E-19   3.69658529524044E-02
      5.00000000000000E-03
      0.00000000000000E+00   0.00000000000000E+00   0.00000000000000E+00   0.00000000000000E+00   9.67830155895805E+02
     -4.59577683124035E-17   9.67830155895805E+02   9.51939706732309E-23   7.50000000000000E-03   7.50000000000000E-03
      0.00000000000000E+00   0.00000000000000E+00  -9.67830155895790E+02  -1.59073847286604E-11  -9.67830155895805E+02
     -6.36579555698286E-23   9.63034147047597E-01   8.51683796906740E-19   3.69658529524044E-02   9.63034147047597E-01
      8.51683796906740E-19   3.69658529524044E-02   9.63034147047597E-01   8.51683796906740E-19   3.69658529524044E-02
      6.00000000000000E-03
      0.00000000000000E+00   0.00000000000000E+00   0.00000000000000E+00   0.00000000000000E+00   9.67819543316326E+02
      1.19080153225162E-16   9.67819543316326E+02  -7.15301463343279E-23   9.00000000000000E-03   9.00000000000000E-03
      0.00000000000000E+00   0.00000000000000E+00  -9.67819543316374E+02   4.81186863052282E-11  -9.67819543316326E+02
      8.89094486343449E-23   9.63034147047597E-01   8.51683796906740E-19   3.69658529524044E-02   9.63034147047597E-01
      8.51683796906740E-19   3.69658529524044E-02   9.63034147047597E-01   8.51683796906740E-19   3.69658529524044E-02
      7.00000000000000E-03
      0.00000000000000E+00   0.00000000000000E+00   0.00000000000000E+00   0.00000000000000E+00   9.67808916877904E+02
     -1.73238809279314E-17   9.67808916877904E+02  -3.30849371517834E-22   1.05000000000000E-02   1.05000000000000E-02
      0.00000000000000E+00   0.00000000000000E+00  -9.67808916877928E+02   2.33139808939115E-11  -9.67808916877904E+02
     -3.01468049684907E-23   9.63034147047597E-01   8.51683796906740E-19   3.69658529524044E-02   9.63034147047597E-01
      8.51683796906740E-19   3.69658529524044E-02   9.63034147047597E-01   8.51683796906740E-19   3.69658529524044E-02
      8.00000000000000E-03
      0.00000000000000E+00   0.00000000000000E+00   0.00000000000000E+00   0.00000000000000E+00   9.67798276554395E+02
     -4.55037199657694E-18   9.67798276554395E+02   3.42010304642532E-23   1.20000000000000E-02   1.20000000000000E-02
      0.00000000000000E+00   0.00000000000000E+00  -9.67798276554360E+02  -3.51369566363402E-11  -9.67798276554395E+02
      2.19438498861553E-23   9.63034147047597E-01   8.51683796906740E-19   3.69658529524044E-02   9.63034147047597E-01
      8.51683796906740E-19   3.69658529524044E-02   9.63034147047597E-01   8.51683796906740E-19   3.69658529524044E-02
      9.00000000000000E-03
      0.00000000000000E+00   0.00000000000000E+00   0.00000000000000E+00   0.00000000000000E+00   9.67787622319385E+02
     -9.75149168705044E-17   9.67787622319385E+02   2.99256653959945E-22   1.35000000000000E-02   1.35000000000000E-02
      0.00000000000000E+00   0.00000000000000E+00  -9.67787622319402E+02   1.65610277578405E-11  -9.67787622319385E+02
     -4.22055269558869E-23   9.63034147047597E-01   8.51683796906740E-19   3.69658529524044E-02   9.63034147047597E-01
      8.51683796906740E-19   3.69658529524044E-02   9.63034147047597E-01   8.51683796906740E-19   3.69658529524044E-02
      1.00000000000000E-02
      0.00000000000000E+00   0.00000000000000E+00   0.00000000000000E+00   0.00000000000000E+00   9.67776954146184E+02
      8.89646343937781E-17   9.67776954146184E+02  -2.30949097122249E-22   1.50000000000000E-02   1.50000000000000E-02
      0.00000000000000E+00   0.00000000000000E+00  -9.67776954146183E+02  -1.68957272139594E-12  -9.67776954146184E+02
     -9.14043566317372E-23   9.63034147047597E-01   8.51683796906740E-19   3.69658529524044E-02   9.63034147047597E-01
      8.51683796906740E-19   3.69658529524044E-02   9.63034147047597E-01   8.51683796906740E-19   3.69658529524044E-02
      1.10000000000000E-02
      0.00000000000000E+00   0.00000000000000E+00   0.00000000000000E+00   0.00000000000000E+00   9.67766272007808E+02
     -3.22951157040650E-17   9.67766272007808E+02  -1.63199114420334E-22   1.65000000000000E-02   1.65000000000000E-02
      0.00000000000000E+00   0.00000000000000E+00  -9.67766272007846E+02   3.76474048106376E-11  -9.67766272007808E+02
     -3.32843407833931E-23   9.63034147047597E-01   8.51683796906740E-19   3.69658529524044E-02   9.63034147047597E-01
      8.51683796906740E-19   3.69658529524044E-02   9.63034147047597E-01   8.51683796906740E-19   3.69658529524044E-02
      1.20000000000000E-02
      0.00000000000000E+00   0.00000000000000E+00   0.00000000000000E+00   0.00000000000000E+00   9.67755575876966E+02
     -1.15924888035938E-16   9.67755575876966E+02   2.35305735708605E-22   1.80000000000000E-02   1.80000000000000E-02
      0.00000000000000E+00   0.00000000000000E+00  -9.67755575877008E+02   4.28894367787181E-11  -9.67755575876966E+02
     -4.58533848611651E-23   9.63034147047597E-01   8.51683796906740E-19   3.69658529524044E-02   9.63034147047597E-01
      8.51683796906740E-19   3.69658529524044E-02   9.63034147047597E-01   8.51683796906740E-19   3.69658529524044E-02
      1.30000000000000E-02
      0.00000000000000E+00   0.00000000000000E+00   0.00000000000000E+00   0.00000000000000E+00   9.67744865726045E+02
      1.06276978703102E-16   9.67744865726045E+02  -2.96742845144391E-23   1.95000000000000E-02   1.95000000000000E-02
      0.00000000000000E+00   0.00000000000000E+00  -9.67744865726084E+02   3.86072135200322E-11  -9.67744865726045E+02
      2.71226740625606E-23   9.63034147047597E-01   8.51683796906740E-19   3.69658529524044E-02   9.63034147047597E-01
      8.51683796906740E-19   3.69658529524044E-02   9.63034147047597E-01   8.51683796906740E-19   3.69658529524044E-02
      1.40000000000000E-02
      0.00000000000000E+00   0.00000000000000E+00   0.00000000000000E+00   0.00000000000000E+00   9.67734141527105E+02
      5.22147358187434E-17   9.67734141527105E+02  -2.04582455786171E-22   2.10000000000000E-02   2.10000000000000E-02
      0.00000000000000E+00   0.00000000000000E+00  -9.67734141527168E+02   6.29257048966868E-11  -9.67734141527105E+02
      1.17978906967598E-22   9.63034147047597E-01   8.51683796906740E-19   3.69658529524044E-02   9.63034147047597E-01
      8.51683796906740E-19   3.69658529524044E-02   9.63034147047597E-01   8.51683796906740E-19   3.69658529524044E-02
      1.50000000000000E-02
      0.00000000000000E+00   0.00000000000000E+00   0.00000000000000E+00   0.00000000000000E+00   9.67723403251859E+02
      2.31333924411272E-17   9.67723403251859E+02   1.82355093627585E-22   2.25000000000000E-02   2.25000000000000E-02
      0.00000000000000E+00   0.00000000000000E+00  -9.67723403251847E+02  -1.17140925822509E-11  -9.67723403251859E+02
     -9.82842544427282E-24   9.63034147047597E-01   8.51683796906740E-19   3.69658529524044E-02   9.63034147047597E-01
      8.51683796906740E-19   3.69658529524044E-02   9.63034147047597E-01   8.51683796906740E-19   3.69658529524044E-02
      1.60000000000000E-02
      0.00000000000000E+00   0.00000000000000E+00   0.00000000000000E+00   0.00000000000000E+00   9.67712650871666E+02
     -3.17420996506599E-16   9.67712650871666E+02  -2.25420607809846E-22   2.40000000000000E-02   2.40000000000000E-02
      0.00000000000000E+00   0.00000000000000E+00  -9.67712650871615E+02  -5.18002976148701E-11  -9.67712650871666E+02
      9.24250008124886E-24   9.63034147047597E-01   8.51683796906740E-19   3.69658529524044E-02   9.63034147047597E-01
      8.51683796906740E-19   3.69658529524044E-02   9.63034147047597E-01   8.51683796906740E-19   3.69658529524044E-02
      1.70000000000000E-02
      0.00000000000000E+00   0.00000000000000E+00   0.00000000000000E+00   0.00000000000000E+00   9.67701884357521E+02
     -3.99430697968268E-17   9.67701884357521E+02   6.44943167734999E-22   2.55000000000000E-02   2.55000000000000E-02
      0.00000000000000E+00   0.00000000000000E+00  -9.67701884357495E+02  -2.55984660132943E-11  -9.67701884357521E+02
      3.53445299630580E-23   9.63034147047597E-01   8.51683796906740E-19   3.69658529524044E-02   9.63034147047597E-01
      8.51683796906740E-19   3.69658529524044E-02   9.63034147047597E-01   8.51683796906740E-19   3.69658529524044E-02
      1.80000000000000E-02
      0.00000000000000E+00   0.00000000000000E+00   0.00000000000000E+00   0.00000000000000E+00   9.67691103680042E+02
      1.43815487564396E-16   9.67691103680042E+02   2.59328675592587E-22   2.70000000000000E-02   2.70000000000000E-02
      0.00000000000000E+00   0.00000000000000E+00  -9.67691103680076E+02   3.38878630621731E-11  -9.67691103680042E+02
      3.59115545079199E-23   9.63034147047597E-01   8.51683796906740E-19   3.69658529524044E-02   9.63034147047597E-01
      8.51683796906740E-19   3.69658529524044E-02   9.63034147047597E-01   8.51683796906740E-19   3.69658529524044E-02
      1.90000000000000E-02
      0.00000000000000E+00   0.00000000000000E+00   0.00000000000000E+00   0.00000000000000E+00   9.67680308809464E+02
     -1.34196419778079E-16   9.67680308809464E+02  -3.01779913184581E-22   2.85000000000000E-02   2.85000000000000E-02
      0.00000000000000E+00   0.00000000000000E+00  -9.67680308809476E+02   1.20902225672541E-11  -9.67680308809464E+02
     -6.04826181186020E-23   9.63034147047597E-01   8.51683796906740E-19   3.69658529524044E-02   9.63034147047597E-01
      8.51683796906740E-19   3.69658529524044E-02   9.63034147047597E-01   8.51683796906740E-19   3.69658529524044E-02
      2.00000000000000E-02
      0.00000000000000E+00   0.00000000000000E+00   0.00000000000000E+00   0.00000000000000E+00   9.67669499715630E+02
     -3.62785453004889E-17   9.67669499715630E+02   3.36226654284941E-22   3.00000000000000E-02   3.00000000000000E-02
      0.00000000000000E+00   0.00000000000000E+00  -9.67669499715685E+02   5.49219466137120E-11  -9.67669499715630E+02
     -5.77419994851028E-23   9.63034147047597E-01   8.51683796906740E-19   3.69658529524044E-02   9.63034147047597E-01
      8.51683796906740E-19   3.69658529524044E-02   9.63034147047597E-01   8.51683796906740E-19   3.69658529524044E-02
      2.10000000000000E-02
      0.00000000000000E+00   0.00000000000000E+00   0.00000000000000E+00   0.00000000000000E+00   9.67658676367982E+02
     -1.09869811355234E-17   9.67658676367982E+02   2.28454189124857E-22   3.15000000000000E-02   3.15000000000000E-02
      0.00000000000000E+00   0.00000000000000E+00  -9.67658676367941E+02  -4.16425651704796E-11  -9.67658676367982E+02
     -3.26984154203692E-24   9.63034147047597E-01   8.51683796906740E-19   3.69658529524044E-02   9.63034147047597E-01
      8.51683796906740E-19   3.69658529524044E-02   9.63034147047597E-01   8.51683796906740E-19   3.69658529524044E-02
      2.20000000000000E-02
      0.00000000000000E+00   0.00000000000000E+00   0.00000000000000E+00   0.00000000000000E+00   9.67647838735555E+02
     -2.12129574650275E-16   9.67647838735555E+02  -1.85804492942161E-22   3.30000000000000E-02   3.30000000000000E-02
      0.00000000000000E+00   0.00000000000000E+00  -9.67647838735598E+02   4.26687559261457E-11  -9.67647838735555E+02
     -8.66413504548973E-23   9.63034147047597E-01   8.51683796906740E-19   3.69658529524044E-02   9.63034147047597E-01
      8.51683796906740E-19   3.69658529524044E-02   9.63034147047597E-01   8.51683796906740E-19   3.69658529524044E-02
      2.30000000000000E-02
      0.00000000000000E+00   0.00000000000000E+00   0.00000000000000E+00   0.00000000000000E+00   9.67636986786972E+02
     -1.23922236863678E-16   9.67636986786972E+02  -4.10960489297738E-22   3.45000000000000E-02   3.45000000000000E-02
      0.00000000000000E+00   0.00000000000000E+00  -9.67636986787049E+02   7.76655057424067E-11  -9.67636986786972E+02
      4.91421272213641E-25   9.63034147047597E-01   8.51683796906740E-19   3.69658529524044E-02   9.63034147047597E-01
      8.51683796906740E-19   3.69658529524044E-02   9.63034147047597E-01   8.51683796906740E-19   3.69658529524044E-02
      2.40000000000000E-02
      0.00000000000000E+00   0.00000000000000E+00   0.00000000000000E+00   0.00000000000000E+00   9.67626120490435E+02
     -8.95101516450881E-17   9.67626120490435E+02   1.05116900208314E-22   3.60000000000000E-02   3.60000000000000E-02
      0.00000000000000E+00   0.00000000000000E+00  -9.67626120490420E+02  -1.53594765494019E-11  -9.67626120490435E+02
      8.05174853703889E-24   9.63034147047597E-01   8.51683796906740E-19   3.69658529524044E-02   9.63034147047597E-01
      8.51683796906740E-19   3.69658529524044E-02   9.63034147047597E-01   8.51683796906740E-19   3.69658529524044E-02
      2.50000000000000E-02
      0.00000000000000E+00   0.00000000000000E+00   0.00000000000000E+00   0.00000000000000E+00   9.67615239813728E+02
      6.82835974509872E-17   9.67615239813728E+02   2.10857527415976E-22   3.75000000000000E-02   3.75000000000000E-02
      0.00000000000000E+00   0.00000000000000E+00  -9.67615239813689E+02  -3.85662020143206E-11  -9.67615239813728E+02
      5.31112990353973E-24   9.63034147047597E-01   8.51683796906740E-19   3.69658529524044E-02   9.63034147047597E-01
      8.51683796906740E-19   3.69658529524044E-02   9.63034147047597E-01   8.51683796906740E-19   3.69658529524044E-02
      2.60000000000000E-02
      0.00000000000000E+00   0.00000000000000E+00   0.00000000000000E+00   0.00000000000000E+00   9.67604344724204E+02
      2.82416423518082E-17   9.67604344724204E+02   3.06996538997310E-22   3.90000000000000E-02   3.90000000000000E-02
      0.00000000000000E+00   0.00000000000000E+00  -9.67604344724177E+02  -2.73144909617954E-11  -9.67604344724204E+02
      5.63433389411101E-23   9.63034147047597E-01   8.51683796906740E-19   3.69658529524044E-02   9.63034147047597E-01
      8.51683796906740E-19   3.69658529524044E-02   9.63034147047597E-01   8.51683796906740E-19   3.69658529524044E-02
      2.70000000000000E-02
      0.00000000000000E+00   0.00000000000000E+00   0.00000000000000E+00   0.00000000000000E+00   9.67593435188792E+02
     -1.93802007903468E-16   9.67593435188792E+02  -4.02984344033348E-22   4.05000000000000E-02   4.05000000000000E-02
      0.00000000000000E+00   0.00000000000000E+00  -9.67593435188795E+02   3.64013847103300E-12  -9.67593435188792E+02
     -4.26024441372903E-23   9.63034147047597E-01   8.51683796906740E-19   3.69658529524044E-02   9.63034147047597E-01
      8.51683796906740E-19   3.69658529524044E-02   9.63034147047597E-01   8.51683796906740E-19   3.69658529524044E-02
      2.80000000000000E-02
      0.00000000000000E+00   0.00000000000000E+00   0.00000000000000E+00   0.00000000000000E+00   9.67582511173986E+02
     -7.78062520675108E-17   9.67582511173986E+02  -2.47128197468975E-23   4.20000000000000E-02   4.20000000000000E-02
      0.00000000000000E+00   0.00000000000000E+00  -9.67582511174044E+02   5.78786146753200E-11  -9.67582511173986E+02
      3.76693305969918E-23   9.63034147047597E-01   8.51683796906740E-19   3.69658529524044E-02   9.63034147047597E-01
      8.51683796906740E-19   3.69658529524044E-02   9.63034147047597E-01   8.51683796906740E-19   3.69658529524044E-02
      2.90000000000000E-02
      0.00000000000000E+00   0.00000000000000E+00   0.00000000000000E+00   0.00000000000000E+00   9.67571572645852E+02
     -7.02662477631502E-18   9.67571572645852E+02  -1.91484188799861E-22   4.35000000000000E-02   4.35000000000000E-02
      0.00000000000000E+00   0.00000000000000E+00  -9.67571572645894E+02   4.15523481009927E-11  -9.67571572645852E+02
     -2.87670452426601E-23   9.63034147047597E-01   8.51683796906740E-19   3.69658529524044E-02   9.63034147047597E-01
      8.51683796906740E-19   3.69658529524044E-02   9.63034147047597E-01   8.51683796906740E-19   3.69658529524044E-02
      3.00000000000000E-02
      0.00000000000000E+00   0.00000000000000E+00   0.00000000000000E+00   0.00000000000000E+00   9.67560619570024E+02
     -3.52542583769566E-17   9.67560619570024E+02  -2.63061587179594E-22   4.50000000000000E-02   4.50000000000000E-02
      0.00000000000000E+00   0.00000000000000E+00  -9.67560619570007E+02  -1.71006400008046E-11  -9.67560619570024E+02
     -6.40548727512319E-23   9.63034147047597E-01   8.51683796906740E-19   3.69658529524044E-02   9.63034147047597E-01
      8.51683796906740E-19   3.69658529524044E-02   9.63034147047597E-01   8.51683796906740E-19   3.69658529524044E-02
      3.10000000000000E-02
      0.00000000000000E+00   0.00000000000000E+00   0.00000000000000E+00   0.00000000000000E+00   9.67549651911707E+02
      1.94720817171158E-16   9.67549651911707E+02  -1.18319121694515E-23   4.65000000000000E-02   4.65000000000000E-02
      0.00000000000000E+00   0.00000000000000E+00  -9.67549651911721E+02   1.44489543710680E-11  -9.67549651911707E+02
     -5.83657264844509E-23   9.63034147047597E-01   8.51683796906740E-19   3.69658529524044E-02   9.63034147047597E-01
      8.51683796906740E-19   3.69658529524044E-02   9.63034147047597E-01   8.51683796906740E-19   3.69658529524044E-02
      3.20000000000000E-02
      0.00000000000000E+00   0.00000000000000E+00   0.00000000000000E+00   0.00000000000000E+00   9.67538669635675E+02
     -2.35651915947321E-17   9.67538669635675E+02  -2.02720725197208E-22   4.80000000000000E-02   4.80000000000000E-02
      0.00000000000000E+00   0.00000000000000E+00  -9.67538669635717E+02   4.23379339077637E-11  -9.67538669635675E+02
     -6.25617081164289E-24   9.63034147047597E-01   8.51683796906740E-19   3.69658529524044E-02   9.63034147047597E-01
      8.51683796906740E-19   3.69658529524044E-02   9.63034147047597E-01   8.51683796906740E-19   3.69658529524044E-02
      3.30000000000000E-02
      0.00000000000000E+00   0.00000000000000E+00   0.00000000000000E+00   0.00000000000000E+00   9.67527672706280E+02
     -5.73600677178065E-17   9.67527672706280E+02   4.15099768475230E-22   4.95000000000000E-02   4.95000000000000E-02
      0.00000000000000E+00   0.00000000000000E+00  -9.67527672706346E+02   6.57287295242237E-11  -9.67527672706280E+02
     -3.39836710553895E-23   9.63034147047597E-01   8.51683796906740E-19   3.69658529524044E-02   9.63034147047597E-01
      8.51683796906740E-19   3.69658529524044E-02   9.63034147047597E-01   8.51683796906740E-19   3.69658529524044E-02
      3.40000000000000E-02
      0.00000000000000E+00   0.00000000000000E+00   0.00000000000000E+00   0.00000000000000E+00   9.67516661087450E+02
     -2.42433799600314E-18   9.67516661087450E+02   2.77397857755519E-22   5.10000000000000E-02   5.10000000000000E-02
      0.00000000000000E+00   0.00000000000000E+00  -9.67516661087462E+02   1.11649438407279E-11  -9.67516661087450E+02
     -5.57952152144103E-23   9.63034147047597E-01   8.51683796906740E-19   3.69658529524044E-02   9.63034147047597E-01
      8.51683796906740E-19   3.69658529524044E-02   9.63034147047597E-01   8.51683796906740E-19   3.69658529524044E-02
      3.50000000000000E-02
      0.00000000000000E+00   0.00000000000000E+00   0.00000000000000E+00   0.00000000000000E+00   9.67505634742699E+02
      4.81266526106633E-17   9.67505634742699E+02   2.12067179778348E-22   5.25000000000000E-02   5.25000000000000E-02
      0.00000000000000E+00   0.00000000000000E+00  -9.67505634742690E+02  -8.49426689313334E-12  -9.67505634742699E+02
     -1.79557772539600E-23   9.63034147047597E-01   8.51683796906740E-19   3.69658529524044E-02   9.63034147047597E-01
      8.51683796906740E-19   3.69658529524044E-02   9.63034147047597E-01   8.51683796906740E-19   3.69658529524044E-02
      3.60000000000000E-02
      0.00000000000000E+00   0.00000000000000E+00   0.00000000000000E+00   0.00000000000000E+00   9.67494593635126E+02
     -5.36955432214686E-17   9.67494593635126E+02  -2.06982859692753E-22   5.40000000000000E-02   5.40000000000000E-02
      0.00000000000000E+00   0.00000000000000E+00  -9.67494593635192E+02   6.64866883728670E-11  -9.67494593635126E+02