DF-ISE text

Info {
  version   = 1.0
  type      = xyplot
  datasets  = [
    "time"
    "back OuterVoltage" "back InnerVoltage" "back QuasiFermiPotential" "back DisplacementCurrent" "back eCurrent"
    "back hCurrent" "back TotalCurrent" "back Charge" "front OuterVoltage" "front InnerVoltage"
    "front QuasiFermiPotential" "front DisplacementCurrent" "front eCurrent" "front hCurrent" "front TotalCurrent"
    "front Charge" "Stripe0 R_TE" "Stripe0 T_TE" "Stripe0 A_TE" "Stripe0 R_TM"
    "Stripe0 T_TM" "Stripe0 A_TM" "Stripe0 R_Total" "Stripe0 T_Total" "Stripe0 A_Total"
    "Device=,File=CommandFile/Physics,DefaultRegionPhysics,Model=Optics,Parameter=Wavelength" "IntegrSemiconductor OpticalGeneration" ]
  functions = [
    Time
    OuterVoltage InnerVoltage QuasiFermiPotential DisplacementCurrent eCurrent
    hCurrent TotalCurrent Charge OuterVoltage InnerVoltage
    QuasiFermiPotential DisplacementCurrent eCurrent hCurrent TotalCurrent
    Charge R_TE T_TE A_TE R_TM
    T_TM A_TM R_Total T_Total A_Total
    Parameter OpticalGeneration ]
}

Data {
      0.00000000000000E+00
      0.00000000000000E+00   0.00000000000000E+00   0.00000000000000E+00   0.00000000000000E+00   6.94305932828331E+00
     -6.94305932828331E+00  -2.53146374021810E-18   8.52426899109046E-23   0.00000000000000E+00   0.00000000000000E+00
      0.00000000000000E+00   0.00000000000000E+00   5.59200544199877E+00  -5.59200544199877E+00   2.95337436358778E-18
     -1.19566575693211E-22   9.75941520310298E-01   5.98242627824182E-19   2.40584796897021E-02   9.75941520310298E-01
      5.98242627824182E-19   2.40584796897021E-02   9.75941520310298E-01   5.98242627824182E-19   2.40584796897021E-02
     -1.00000000000000E+00   8.73198187325552E+22
      1.00000000000000E-11
      0.00000000000000E+00   0.00000000000000E+00   0.00000000000000E+00   1.47245453611737E+00   3.38797213002933E-01
      3.66699662889666E-19   1.81125174912031E+00   1.32305727134442E-23   0.00000000000000E+00   0.00000000000000E+00
      0.00000000000000E+00  -4.73505468368494E+00  -3.42134114923266E-01  -1.99933720693495E-19  -5.07718879860821E+00
      9.65453791718184E-23   9.75941520310298E-01   5.98242627824182E-19   2.40584796897021E-02   9.75941520310298E-01
      5.98242627824182E-19   2.40584796897021E-02   9.75941520310298E-01   5.98242627824182E-19   2.40584796897021E-02
     -1.00000000000000E+00   8.73198187325552E+22
      3.00000000000000E-11
      0.00000000000000E+00   0.00000000000000E+00   0.00000000000000E+00   3.31204459535174E+00   7.16097527986637E-01
     -1.08773832587497E-19   4.02814212333837E+00  -4.67228224966200E-23   0.00000000000000E+00   0.00000000000000E+00
      0.00000000000000E+00  -5.63079848324380E+00  -7.18291430399288E-01  -3.31265762880103E-19  -6.34908991364309E+00
      9.83976593517006E-23   9.75941520310298E-01   5.98242627824182E-19   2.40584796897021E-02   9.75941520310298E-01
      5.98242627824182E-19   2.40584796897021E-02   9.75941520310298E-01   5.98242627824182E-19   2.40584796897021E-02
     -1.00000000000000E+00   8.73198187325552E+22
      7.00000000000000E-11
      0.00000000000000E+00   0.00000000000000E+00   0.00000000000000E+00   4.83973033576975E+00   1.18504124669535E+00
     -4.04605695458036E-19   6.02477158246510E+00  -9.47309006282603E-23   0.00000000000000E+00   0.00000000000000E+00
      0.00000000000000E+00  -5.76199874085919E+00  -1.18643085670889E+00  -1.12070009332572E-19  -6.94842959756808E+00
      3.17155728759419E-23   9.75941520310298E-01   5.98242627824182E-19   2.40584796897021E-02   9.75941520310298E-01
      5.98242627824182E-19   2.40584796897021E-02   9.75941520310298E-01   5.98242627824182E-19   2.40584796897021E-02
     -1.00000000000000E+00   8.73198187325552E+22
      1.50000000000000E-10
      0.00000000000000E+00   0.00000000000000E+00   0.00000000000000E+00   5.20103266243734E+00   1.79052010507330E+00
      6.59235349015130E-21   6.99155276751064E+00   4.19976179561042E-23   0.00000000000000E+00   0.00000000000000E+00
      0.00000000000000E+00  -5.67287645879476E+00  -1.79141815890909E+00  -1.64808837253783E-20  -7.46429461770385E+00
      3.51555217814374E-24   9.75941520310298E-01   5.98242627824182E-19   2.40584796897021E-02   9.75941520310298E-01
      5.98242627824182E-19   2.40584796897021E-02   9.75941520310298E-01   5.98242627824182E-19   2.40584796897021E-02
     -1.00000000000000E+00   8.73198187325552E+22
      3.10000000000000E-10
      0.00000000000000E+00   0.00000000000000E+00   0.00000000000000E+00   4.69569384097434E+00   2.55651928510917E+00
     -3.26321497762490E-19   7.25221312608351E+00  -7.15962991978951E-23   0.00000000000000E+00   0.00000000000000E+00
      0.00000000000000E+00  -5.36118230075432E+00  -2.55708734482898E+00  -1.18662362822723E-18  -7.91826964558330E+00
      1.30188835500291E-22   9.75941520310298E-01   5.98242627824182E-19   2.40584796897021E-02   9.75941520310298E-01
      5.98242627824182E-19   2.40584796897021E-02   9.75941520310298E-01   5.98242627824182E-19   2.40584796897021E-02
     -1.00000000000000E+00   8.73198187325552E+22
      6.30000000000000E-10
      0.00000000000000E+00   0.00000000000000E+00   0.00000000000000E+00   3.82531363973669E+00   3.47159419150583E+00
      9.88853023522696E-21   7.29690783124252E+00  -5.38295301255557E-23   0.00000000000000E+00   0.00000000000000E+00
      0.00000000000000E+00  -4.73058154064993E+00  -3.47193381195991E+00  -1.04818420493406E-18  -8.20251535260984E+00
      1.03160665528540E-22   9.75941520310298E-01   5.98242627824182E-19   2.40584796897021E-02   9.75941520310298E-01
      5.98242627824182E-19   2.40584796897021E-02   9.75941520310298E-01   5.98242627824182E-19   2.40584796897021E-02
     -1.00000000000000E+00   8.73198187325552E+22
      1.27000000000000E-09
      0.00000000000000E+00   0.00000000000000E+00   0.00000000000000E+00   2.80590692397221E+00   4.49744347214792E+00
      4.22734667555952E-19   7.30335039612013E+00  -5.75718921216442E-23   0.00000000000000E+00   0.00000000000000E+00
      0.00000000000000E+00  -3.81233475014514E+00  -4.49763401494914E+00  -1.18332745148216E-18  -8.30996876509428E+00
     -1.09511340430994E-22   9.75941520310298E-01   5.98242627824182E-19   2.40584796897021E-02   9.75941520310298E-01
      5.98242627824182E-19   2.40584796897021E-02   9.75941520310298E-01   5.98242627824182E-19   2.40584796897021E-02
     -1.00000000000000E+00   8.73198187325552E+22
      2.55000000000000E-09
      0.00000000000000E+00   0.00000000000000E+00   0.00000000000000E+00   1.71779473089308E+00   5.58637947859370E+00
      1.31847069803026E-20   7.30417420948678E+00   1.06336002979767E-22   0.00000000000000E+00   0.00000000000000E+00
      0.00000000000000E+00  -2.74596722146443E+00  -5.58648065497500E+00  -2.30732372155296E-20  -8.33244787643943E+00
     -1.78045707086635E-23   9.75941520310298E-01   5.98242627824182E-19   2.40584796897021E-02   9.75941520310298E-01
      5.98242627824182E-19   2.40584796897021E-02   9.75941520310298E-01   5.98242627824182E-19   2.40584796897021E-02
     -1.00000000000000E+00   8.73198187325552E+22
      5.11000000000000E-09
      0.00000000000000E+00   0.00000000000000E+00   0.00000000000000E+00   6.70254552044924E-01   6.63399253965044E+00
     -7.44935944387097E-19   7.30424709169537E+00   4.63070044970546E-23   0.00000000000000E+00   0.00000000000000E+00
      0.00000000000000E+00  -1.70087072147889E+00  -6.63404122152135E+00  -1.98429840053554E-18  -8.33491194300024E+00
     -6.05960230275743E-23   9.75941520310298E-01   5.98242627824182E-19   2.40584796897021E-02   9.75941520310298E-01
      5.98242627824182E-19   2.40584796897021E-02   9.75941520310298E-01   5.98242627824182E-19   2.40584796897021E-02
     -1.00000000000000E+00   8.73198187325552E+22
      1.02300000000000E-08
      0.00000000000000E+00   0.00000000000000E+00   0.00000000000000E+00  -1.36496503549252E-01   7.44075069323951E+00
     -2.93359730311733E-19   7.30425418969025E+00   2.38150308841995E-24   0.00000000000000E+00   0.00000000000000E+00
      0.00000000000000E+00  -8.94260292723644E-01  -7.44076944767629E+00  -5.30684455957180E-19  -8.33502974039993E+00
      8.92118617249379E-24   9.75941520310298E-01   5.98242627824182E-19   2.40584796897021E-02   9.75941520310298E-01
      5.98242627824182E-19   2.40584796897021E-02   9.75941520310298E-01   5.98242627824182E-19   2.40584796897021E-02
     -1.00000000000000E+00   8.73198187325552E+22
      2.04700000000000E-08
      0.00000000000000E+00   0.00000000000000E+00   0.00000000000000E+00  -5.62161058619372E-01   7.86641894643687E+00
      2.27436195410220E-19   7.30425788781750E+00   5.40563399435005E-24   0.00000000000000E+00   0.00000000000000E+00
      0.00000000000000E+00  -4.68583846326441E-01  -7.86642390451603E+00   4.69375568498773E-18  -8.33500775084247E+00
     -2.26809817944757E-25   9.75941520310298E-01   5.98242627824182E-19   2.40584796897021E-02   9.75941520310298E-01
      5.98242627824182E-19   2.40584796897021E-02   9.75941520310298E-01   5.98242627824182E-19   2.40584796897021E-02
     -1.00000000000000E+00   8.73198187325552E+22
      4.09500000000000E-08
      0.00000000000000E+00   0.00000000000000E+00   0.00000000000000E+00  -7.03557614232515E-01   8.00782019819204E+00
     -2.23315974478875E-19   7.30426258395953E+00  -2.30211965213929E-23   0.00000000000000E+00   0.00000000000000E+00
      0.00000000000000E+00  -3.27148665957279E-01  -8.00782103362146E+00   1.23277010265829E-18  -8.33496969957874E+00
      9.42772809923708E-23   9.75941520310298E-01   5.98242627824182E-19   2.40584796897021E-02   9.75941520310298E-01
      5.98242627824182E-19   2.40584796897021E-02   9.75941520310298E-01   5.98242627824182E-19   2.40584796897021E-02
     -1.00000000000000E+00   8.73198187325552E+22
      8.19100000000000E-08
      0.00000000000000E+00   0.00000000000000E+00   0.00000000000000E+00  -7.44243490138968E-01   8.04851477996688E+00
      8.89967721170426E-20   7.30427128982792E+00   2.67635585174814E-23   0.00000000000000E+00   0.00000000000000E+00
      0.00000000000000E+00  -2.86387182346174E-01  -8.04851491313104E+00   4.61464744310591E-20  -8.33490209547721E+00
     -2.41174439747925E-23   9.75941520310298E-01   5.98242627824182E-19   2.40584796897021E-02   9.75941520310298E-01
      5.98242627824182E-19   2.40584796897021E-02   9.75941520310298E-01   5.98242627824182E-19   2.40584796897021E-02
     -1.00000000000000E+00   8.73198187325552E+22
      1.63830000000000E-07
      0.00000000000000E+00   0.00000000000000E+00   0.00000000000000E+00  -7.73340052733079E-01   8.07762917524036E+00
      8.57005953719670E-20   7.30428912250728E+00   5.65512479408928E-23   0.00000000000000E+00   0.00000000000000E+00
      0.00000000000000E+00  -2.57150981003416E-01  -8.07762923233404E+00  -8.80079190935199E-19  -8.33478021333746E+00
      1.15294990788585E-23   9.75941520310298E-01   5.98242627824182E-19   2.40584796897021E-02   9.75941520310298E-01
      5.98242627824182E-19   2.40584796897021E-02   9.75941520310298E-01   5.98242627824182E-19   2.40584796897021E-02
     -1.00000000000000E+00   8.73198187325552E+22
      3.27670000000000E-07
      0.00000000000000E+00   0.00000000000000E+00   0.00000000000000E+00  -8.05528613916708E-01   8.10985475229189E+00
      3.13136790782187E-19   7.30432613837519E+00   1.83337936172012E-23   0.00000000000000E+00   0.00000000000000E+00
      0.00000000000000E+00  -2.24711498584710E-01  -8.10985479168136E+00   7.41639767642022E-19  -8.33456629026607E+00
     -7.37509924683703E-23   9.75941520310298E-01   5.98242627824182E-19   2.40584796897021E-02   9.75941520310298E-01
      5.98242627824182E-19   2.40584796897021E-02   9.75941520310298E-01   5.98242627824182E-19   2.40584796897021E-02
     -1.00000000000000E+00   8.73198187325552E+22
      6.55350000000000E-07
      0.00000000000000E+00   0.00000000000000E+00   0.00000000000000E+00  -8.32849219669228E-01   8.13725167174330E+00
     -3.62579441958322E-19   7.30440245207407E+00  -2.26809817944757E-25   0.00000000000000E+00   0.00000000000000E+00
      0.00000000000000E+00  -1.96937657552643E-01  -8.13725169846320E+00  -2.85778523798059E-18  -8.33418935601584E+00
     -2.17661821954319E-22   9.75941520310298E-01   5.98242627824182E-19   2.40584796897021E-02   9.75941520310298E-01
      5.98242627824182E-19   2.40584796897021E-02   9.75941520310298E-01   5.98242627824182E-19   2.40584796897021E-02
     -1.00000000000000E+00   8.73198187325552E+22
      1.31071000000000E-06
      0.00000000000000E+00   0.00000000000000E+00   0.00000000000000E+00  -8.47309015565354E-01   8.15186628419647E+00
      4.18614446624608E-19   7.30455726863112E+00   3.17533745122660E-24   0.00000000000000E+00   0.00000000000000E+00
      0.00000000000000E+00  -1.81624113404123E-01  -8.15186630418891E+00   1.91507868888895E-18  -8.33349041759303E+00
     -2.76707977892604E-23   9.75941520310298E-01   5.98242627824182E-19   2.40584796897021E-02   9.75941520310298E-01
      5.98242627824182E-19   2.40584796897021E-02   9.75941520310298E-01   5.98242627824182E-19   2.40584796897021E-02
     -1.00000000000000E+00   8.73198187325552E+22
      2.62143000000000E-06
      0.00000000000000E+00   0.00000000000000E+00   0.00000000000000E+00  -8.48898798112742E-01   8.15376497387294E+00
     -8.89967721170426E-20   7.30486617576020E+00   4.76300617683990E-24   0.00000000000000E+00   0.00000000000000E+00
      0.00000000000000E+00  -1.78344592754740E-01  -8.15376499223011E+00   2.17547665174993E-18  -8.33210958498485E+00
      2.74817896076398E-23   9.75941520310298E-01   5.98242627824182E-19   2.40584796897021E-02   9.75941520310298E-01
      5.98242627824182E-19   2.40584796897021E-02   9.75941520310298E-01   5.98242627824182E-19   2.40584796897021E-02
     -1.00000000000000E+00   8.73198187325552E+22
      5.24287000000000E-06
      0.00000000000000E+00   0.00000000000000E+00   0.00000000000000E+00  -8.41262685477672E-01   8.14673633451201E+00
     -4.58168567565516E-19   7.30547364903434E+00  -4.31694686821522E-23   0.00000000000000E+00   0.00000000000000E+00
      0.00000000000000E+00  -1.82518334809493E-01  -8.14673635460361E+00   3.55987088468170E-18  -8.32925468941310E+00
     -9.02325059056893E-23   9.75941520310298E-01   5.98242627824182E-19   2.40584796897021E-02   9.75941520310298E-01
      5.98242627824182E-19   2.40584796897021E-02   9.75941520310298E-01   5.98242627824182E-19   2.40584796897021E-02
     -1.00000000000000E+00   8.73198187325552E+22
      1.04857500000000E-05
      0.00000000000000E+00   0.00000000000000E+00   0.00000000000000E+00  -8.22150999160095E-01   8.12879401533210E+00
     -6.79012409485584E-19   7.30664301617200E+00   5.56062070327897E-23   0.00000000000000E+00   0.00000000000000E+00
      0.00000000000000E+00  -1.94256138577085E-01  -8.12879404004258E+00  -6.95493293210963E-19  -8.32305017861966E+00
     -2.83890288794188E-23   9.75941520310298E-01   5.98242627824182E-19   2.40584796897021E-02   9.75941520310298E-01
      5.98242627824182E-19   2.40584796897021E-02   9.75941520310298E-01   5.98242627824182E-19   2.40584796897021E-02
     -1.00000000000000E+00   8.73198187325552E+22
      2.09715100000000E-05
      0.00000000000000E+00   0.00000000000000E+00   0.00000000000000E+00  -7.72677270651464E-01   8.08145399430856E+00
     -1.54920307018556E-19   7.30877672365710E+00   1.82203887082288E-23   0.00000000000000E+00   0.00000000000000E+00
      0.00000000000000E+00  -2.26437969546656E-01  -8.08145403011430E+00   2.33698931225864E-18  -8.30789199966096E+00
      7.25035384696741E-23   9.75941520310298E-01   5.98242627824182E-19   2.40584796897021E-02   9.75941520310298E-01
      5.98242627824182E-19   2.40584796897021E-02   9.75941520310298E-01   5.98242627824182E-19   2.40584796897021E-02
     -1.00000000000000E+00   8.73198187325552E+22
      4.19430300000000E-05
      0.00000000000000E+00   0.00000000000000E+00   0.00000000000000E+00  -6.66676557194473E-01   7.97893749218461E+00
      1.81289720979161E-19   7.31226093499014E+00   2.94852763328185E-24   0.00000000000000E+00   0.00000000000000E+00
      0.00000000000000E+00  -2.86010334229319E-01  -7.97893756012086E+00   2.76219611237340E-18  -8.26494789435018E+00
     -4.90287223123917E-23   9.75941520310298E-01   5.98242627824182E-19   2.40584796897021E-02   9.75941520310298E-01
      5.98242627824182E-19   2.40584796897021E-02   9.75941520310298E-01   5.98242627824182E-19   2.40584796897021E-02
     -1.00000000000000E+00   8.73198187325552E+22
      8.38860700000000E-05
      0.00000000000000E+00   0.00000000000000E+00   0.00000000000000E+00  -4.58815353334563E-01   7.77546162135589E+00
     -1.02181479097345E-19   7.31664626802132E+00  -4.02209410488703E-23   0.00000000000000E+00   0.00000000000000E+00
      0.00000000000000E+00  -2.67271627985531E-01  -7.77546176959444E+00  -8.83375367680275E-19  -8.04273339757997E+00
     -8.04796837340647E-23   9.75941520310298E-01   5.98242627824182E-19   2.40584796897021E-02   9.75941520310298E-01
      5.98242627824182E-19   2.40584796897021E-02   9.75941520310298E-01   5.98242627824182E-19   2.40584796897021E-02
     -1.00000000000000E+00   8.73198187325552E+22
      1.04857590000000E-04
      0.00000000000000E+00   0.00000000000000E+00   0.00000000000000E+00  -1.24194696848590E-01   7.44139737691570E+00
     -4.08725916389381E-19   7.31720268006711E+00   9.45040908103156E-25   0.00000000000000E+00   0.00000000000000E+00
      0.00000000000000E+00  -8.24082483099586E-02  -7.44139745294982E+00  -8.89967721170426E-20  -7.52380570125978E+00
      7.10292746530332E-23   9.75941520310298E-01   5.98242627824182E-19   2.40584796897021E-02   9.75941520310298E-01
      5.98242627824182E-19   2.40584796897021E-02   9.75941520310298E-01   5.98242627824182E-19   2.40584796897021E-02
     -1.00000000000000E+00   8.73198187325552E+22
      1.46800630000000E-04
      0.00000000000000E+00   0.00000000000000E+00   0.00000000000000E+00  -9.24898267324678E-03   7.32653368698065E+00
     -3.13136790782187E-20   7.31728470430740E+00   9.45040908103156E-25   0.00000000000000E+00   0.00000000000000E+00
      0.00000000000000E+00  -6.91432210834791E-03  -7.32653369275253E+00   3.55987088468170E-19  -7.33344801486087E+00
     -8.61877308190078E-23   9.75941520310298E-01   5.98242627824182E-19   2.40584796897021E-02   9.75941520310298E-01
      5.98242627824182E-19   2.40584796897021E-02   9.75941520310298E-01   5.98242627824182E-19   2.40584796897021E-02
     -1.00000000000000E+00   8.73198187325552E+22
      2.30686710000000E-04
      0.00000000000000E+00   0.00000000000000E+00   0.00000000000000E+00  -3.10623715123232E-04   7.31760082852057E+00
     -1.64808837253783E-20   7.31729020480545E+00   1.15673007151826E-23   0.00000000000000E+00   0.00000000000000E+00
      0.00000000000000E+00  -2.49102605540956E-04  -7.31760082894755E+00   6.19681228074223E-19  -7.31784993155309E+00
      8.92118617249379E-24   9.75941520310298E-01   5.98242627824182E-19   2.40584796897021E-02   9.75941520310298E-01
      5.98242627824182E-19   2.40584796897021E-02   9.75941520310298E-01   5.98242627824182E-19   2.40584796897021E-02
     -1.00000000000000E+00   8.73198187325552E+22
      3.98458870000000E-04
      0.00000000000000E+00   0.00000000000000E+00   0.00000000000000E+00  -5.23996191693006E-06   7.31729563031732E+00
     -2.93359730311733E-19   7.31729039035540E+00  -1.36085890766854E-24   0.00000000000000E+00   0.00000000000000E+00
      0.00000000000000E+00  -4.35316225044709E-06  -7.31729563010517E+00   1.31847069803026E-20  -7.31729998326742E+00
     -8.75485897266763E-23   9.75941520310298E-01   5.98242627824182E-19   2.40584796897021E-02   9.75941520310298E-01
      5.98242627824182E-19   2.40584796897021E-02   9.75941520310298E-01   5.98242627824182E-19   2.40584796897021E-02
     -1.00000000000000E+00   8.73198187325552E+22
      7.34003190000000E-04
      0.00000000000000E+00   0.00000000000000E+00   0.00000000000000E+00  -4.40891601008336E-08   7.31729043758865E+00
     -8.15803744406224E-19   7.31729039349949E+00  -5.33381088533421E-23   0.00000000000000E+00   0.00000000000000E+00
      0.00000000000000E+00  -3.75910123689870E-08  -7.31729043792604E+00  -1.99089075402569E-18  -7.31729047551705E+00
     -4.96713501299019E-23   9.75941520310298E-01   5.98242627824182E-19   2.40584796897021E-02   9.75941520310298E-01
      5.98242627824182E-19   2.40584796897021E-02   9.75941520310298E-01   5.98242627824182E-19   2.40584796897021E-02
     -1.00000000000000E+00   8.73198187325552E+22
      1.40509183000000E-03
      0.00000000000000E+00   0.00000000000000E+00   0.00000000000000E+00  -3.72369986404645E-10   7.31729039389866E+00
     -1.84585897724237E-19   7.31729039352629E+00   5.14102254008117E-24   0.00000000000000E+00   0.00000000000000E+00
      0.00000000000000E+00  -1.33479074942601E-10  -7.31729039374349E+00  -4.94426511761348E-20  -7.31729039387697E+00
     -3.45884972365755E-23   9.75941520310298E-01   5.98242627824182E-19   2.40584796897021E-02   9.75941520310298E-01
      5.98242627824182E-19   2.40584796897021E-02   9.75941520310298E-01   5.98242627824182E-19   2.40584796897021E-02
     -1.00000000000000E+00   8.73198187325552E+22
      2.74726911000000E-03
      0.00000000000000E+00   0.00000000000000E+00   0.00000000000000E+00   2.34871640241732E-10   7.31729039329153E+00
     -1.48327953528404E-19   7.31729039352640E+00  -4.58155832248410E-23   0.00000000000000E+00   0.00000000000000E+00
      0.00000000000000E+00   1.52515324910743E-10  -7.31729039368076E+00  -1.43383688410791E-18  -7.31729039352825E+00
      4.04477508668151E-23   9.75941520310298E-01   5.98242627824182E-19   2.40584796897021E-02   9.75941520310298E-01
      5.98242627824182E-19   2.40584796897021E-02   9.75941520310298E-01   5.98242627824182E-19   2.40584796897021E-02
     -1.00000000000000E+00   8.73198187325552E+22
      5.43162367000000E-03
      0.00000000000000E+00   0.00000000000000E+00   0.00000000000000E+00  -1.76245985791071E-10   7.31729039370265E+00
     -2.93359730311733E-19   7.31729039352640E+00  -8.81534159078624E-23   0.00000000000000E+00   0.00000000000000E+00
      0.00000000000000E+00  -2.16298134672821E-11  -7.31729039350478E+00  -9.78964493287469E-19  -7.31729039352641E+00
     -3.19045810575625E-23   9.75941520310298E-01   5.98242627824182E-19   2.40584796897021E-02   9.75941520310298E-01
      5.98242627824182E-19   2.40584796897021E-02   9.75941520310298E-01   5.98242627824182E-19   2.40584796897021E-02
     -1.00000000000000E+00   8.73198187325552E+22
      1.08003327900000E-02
      0.00000000000000E+00   0.00000000000000E+00   0.00000000000000E+00  -1.54496479233313E-10   7.31729039368090E+00
      3.79060325683700E-20   7.31729039352640E+00  -2.90316566969289E-23   0.00000000000000E+00   0.00000000000000E+00
      0.00000000000000E+00  -6.28079359032396E-13  -7.31729039352578E+00   2.57101786115901E-19  -7.31729039352641E+00
      1.37219939856578E-23   9.75941520310298E-01   5.98242627824182E-19   2.40584796897021E-02   9.75941520310298E-01
      5.98242627824182E-19   2.40584796897021E-02   9.75941520310298E-01   5.98242627824182E-19   2.40584796897021E-02
     -1.00000000000000E+00   8.73198187325552E+22
      2.15377510300000E-02
      0.00000000000000E+00   0.00000000000000E+00   0.00000000000000E+00  -1.59270747700648E-10   7.31729039368567E+00
     -2.30732372155296E-19   7.31729039352640E+00  -3.62895708711612E-24   0.00000000000000E+00   0.00000000000000E+00
      0.00000000000000E+00  -2.09922938580518E-11  -7.31729039350541E+00   1.22288157242307E-18  -7.31729039352640E+00
      2.07152967056212E-23   9.75941520310298E-01   5.98242627824182E-19   2.40584796897021E-02   9.75941520310298E-01
      5.98242627824182E-19   2.40584796897021E-02   9.75941520310298E-01   5.98242627824182E-19   2.40584796897021E-02
     -1.00000000000000E+00   8.73198187325552E+22
      4.30125875100000E-02
      0.00000000000000E+00   0.00000000000000E+00   0.00000000000000E+00  -1.54496460669246E-10   7.31729039368090E+00
     -4.84537981526121E-19   7.31729039352640E+00  -7.34863810141014E-23   0.00000000000000E+00   0.00000000000000E+00
      0.00000000000000E+00  -6.25001099124291E-13  -7.31729039352578E+00  -2.13592253080902E-18  -7.31729039352640E+00
     -2.26809817944757E-24   9.75941520310298E-01   5.98242627824182E-19   2.40584796897021E-02   9.75941520310298E-01
      5.98242627824182E-19   2.40584796897021E-02   9.75941520310298E-01   5.98242627824182E-19   2.40584796897021E-02
     -1.00000000000000E+00   8.73198187325552E+22
      8.59622604700000E-02
      0.00000000000000E+00   0.00000000000000E+00   0.00000000000000E+00  -1.59270749388291E-10   7.31729039368567E+00
      9.88853023522696E-21   7.31729039352640E+00  -5.75340904853201E-23   0.00000000000000E+00   0.00000000000000E+00
      0.00000000000000E+00  -2.09857103646848E-11  -7.31729039350541E+00   1.37780187944162E-18  -7.31729039352640E+00
      3.17533745122660E-24   9.75941520310298E-01   5.98242627824182E-19   2.40584796897021E-02   9.75941520310298E-01
      5.98242627824182E-19   2.40584796897021E-02   9.75941520310298E-01   5.98242627824182E-19   2.40584796897021E-02
     -1.00000000000000E+00   8.73198187325552E+22
      1.00000000000000E-01
      0.00000000000000E+00   0.00000000000000E+00   0.00000000000000E+00  -1.54496464888352E-10   7.31729039368090E+00
     -2.86767376821582E-19   7.31729039352640E+00  -6.78917388381307E-23   0.00000000000000E+00   0.00000000000000E+00
      0.00000000000000E+00  -4.13511602180095E-11  -7.31729039348505E+00  -1.12070009332572E-18  -7.31729039352640E+00
      1.31171678044718E-23   9.75941520310298E-01   5.98242627824182E-19   2.40584796897021E-02   9.75941520310298E-01
      5.98242627824182E-19   2.40584796897021E-02   9.75941520310298E-01   5.98242627824182E-19   2.40584796897021E-02
     -1.00000000000000E+00   8.73198187325552E+22
      1.00000000000000E-02
      0.00000000000000E+00   0.00000000000000E+00   0.00000000000000E+00   0.00000000000000E+00   7.31712533138200E+00
     -7.41790906117348E-19   7.31712533138200E+00  -1.53777056566545E-22   3.50000000000000E-02   3.50000000000000E-02
      0.00000000000000E+00   0.00000000000000E+00  -7.31712533135458E+00  -2.74155945948053E-11  -7.31712533138199E+00
     -4.24134359556696E-23   9.75941520310298E-01   5.98242627824182E-19   2.40584796897021E-02   9.75941520310298E-01
      5.98242627824182E-19   2.40584796897021E-02   9.75941520310298E-01   5.98242627824182E-19   2.40584796897021E-02
     -1.00000000000000E+00   8.73198187325552E+22
      2.00000000000000E-02
      0.00000000000000E+00   0.00000000000000E+00   0.00000000000000E+00   0.00000000000000E+00   7.31695879271887E+00
      3.03937210575250E-19   7.31695879271887E+00   7.67373217379762E-24   7.00000000000000E-02   7.00000000000000E-02
      0.00000000000000E+00   0.00000000000000E+00  -7.31695879269066E+00  -2.82143891825955E-11  -7.31695879271887E+00
      8.03662788250924E-23   9.75941520310298E-01   5.98242627824182E-19   2.40584796897021E-02   9.75941520310298E-01
      5.98242627824182E-19   2.40584796897021E-02   9.75941520310298E-01   5.98242627824182E-19   2.40584796897021E-02
     -1.00000000000000E+00   8.73198187325552E+22
      3.00000000000000E-02
      0.00000000000000E+00   0.00000000000000E+00   0.00000000000000E+00   0.00000000000000E+00   7.31679076160650E+00
     -2.33550649544348E-18   7.31679076160650E+00   1.38353988946302E-23   1.05000000000000E-01   1.05000000000000E-01
      0.00000000000000E+00   0.00000000000000E+00  -7.31679076164379E+00   3.73056331320813E-11  -7.31679076160649E+00
     -3.91624952317948E-23   9.75941520310298E-01   5.98242627824182E-19   2.40584796897021E-02   9.75941520310298E-01
      5.98242627824182E-19   2.40584796897021E-02   9.75941520310298E-01   5.98242627824182E-19   2.40584796897021E-02
     -1.00000000000000E+00   8.73198187325552E+22
      4.00000000000000E-02
      0.00000000000000E+00   0.00000000000000E+00   0.00000000000000E+00   0.00000000000000E+00   7.31662121907008E+00
      1.76034377169404E-18   7.31662121907008E+00   1.79179756176358E-23   1.40000000000000E-01   1.40000000000000E-01
      0.00000000000000E+00   0.00000000000000E+00  -7.31662121907003E+00  -4.82432952411855E-14  -7.31662121907008E+00
      5.28844892174526E-23   9.75941520310298E-01   5.98242627824182E-19   2.40584796897021E-02   9.75941520310298E-01
      5.98242627824182E-19   2.40584796897021E-02   9.75941520310298E-01   5.98242627824182E-19   2.40584796897021E-02
     -1.00000000000000E+00   8.73198187325552E+22
      5.00000000000000E-02
      0.00000000000000E+00   0.00000000000000E+00   0.00000000000000E+00   0.00000000000000E+00   7.31645014249229E+00
      1.14114658910619E-18   7.31645014249229E+00  -3.54957365083545E-23   1.75000000000000E-01   1.75000000000000E-01
      0.00000000000000E+00   0.00000000000000E+00  -7.31645014248444E+00  -7.84418128660272E-12  -7.31645014249229E+00
     -7.57922808298731E-23   9.75941520310298E-01   5.98242627824182E-19   2.40584796897021E-02   9.75941520310298E-01
      5.98242627824182E-19   2.40584796897021E-02   9.75941520310298E-01   5.98242627824182E-19   2.40584796897021E-02
     -1.00000000000000E+00   8.73198187325552E+22
      6.00000000000000E-02
      0.00000000000000E+00   0.00000000000000E+00   0.00000000000000E+00   0.00000000000000E+00   7.31627750636412E+00
      9.77163506091307E-19   7.31627750636412E+00   3.41726792370101E-23   2.10000000000000E-01   2.10000000000000E-01
      0.00000000000000E+00   0.00000000000000E+00  -7.31627750640330E+00   3.91924053477661E-11  -7.31627750636411E+00
     -1.08415092977594E-22   9.75941520310298E-01   5.98242627824182E-19   2.40584796897021E-02   9.75941520310298E-01
      5.98242627824182E-19   2.40584796897021E-02   9.75941520310298E-01   5.98242627824182E-19   2.40584796897021E-02
     -1.00000000000000E+00   8.73198187325552E+22
      7.00000000000000E-02