DF-ISE text

Info {
  version   = 1.0
  type      = xyplot
  datasets  = [
    "time"
    "back OuterVoltage" "back InnerVoltage" "back QuasiFermiPotential" "back DisplacementCurrent" "back eCurrent"
    "back hCurrent" "back TotalCurrent" "back Charge" "front OuterVoltage" "front InnerVoltage"
    "front QuasiFermiPotential" "front DisplacementCurrent" "front eCurrent" "front hCurrent" "front TotalCurrent"
    "front Charge" "Stripe0 R_TE" "Stripe0 T_TE" "Stripe0 A_TE" "Stripe0 R_TM"
    "Stripe0 T_TM" "Stripe0 A_TM" "Stripe0 R_Total" "Stripe0 T_Total" "Stripe0 A_Total"
    "Device=,File=CommandFile/Physics,DefaultRegionPhysics,Model=Optics,Parameter=Wavelength" "IntegrSemiconductor OpticalGeneration" ]
  functions = [
    Time
    OuterVoltage InnerVoltage QuasiFermiPotential DisplacementCurrent eCurrent
    hCurrent TotalCurrent Charge OuterVoltage InnerVoltage
    QuasiFermiPotential DisplacementCurrent eCurrent hCurrent TotalCurrent
    Charge R_TE T_TE A_TE R_TM
    T_TM A_TM R_Total T_Total A_Total
    Parameter OpticalGeneration ]
}

Data {
      0.00000000000000E+00
      0.00000000000000E+00   0.00000000000000E+00   0.00000000000000E+00   0.00000000000000E+00   6.94305932828331E+01
     -6.94305932828331E+01   3.37528498695747E-17   8.52426899109046E-23   0.00000000000000E+00   0.00000000000000E+00
      0.00000000000000E+00   0.00000000000000E+00   5.59200544203543E+01  -5.59200544203543E+01  -3.71281348565321E-17
     -1.19566575693211E-22   9.75941520310298E-01   5.98242627824182E-19   2.40584796897021E-02   9.75941520310298E-01
      5.98242627824182E-19   2.40584796897021E-02   9.75941520310298E-01   5.98242627824182E-19   2.40584796897021E-02
     -1.00000000000000E+00   8.73198187325552E+23
      1.00000000000000E-11
      0.00000000000000E+00   0.00000000000000E+00   0.00000000000000E+00   1.47247382828201E+01   3.38774374606658E+00
      1.79312014932115E-18   1.81124820288867E+01  -7.14450926525986E-23   0.00000000000000E+00   0.00000000000000E+00
      0.00000000000000E+00  -4.73493896789780E+01  -3.42233424497846E+00  -1.76345455861547E-19  -5.07717239239564E+01
     -2.53270963371646E-23   9.75941520310298E-01   5.98242627824182E-19   2.40584796897021E-02   9.75941520310298E-01
      5.98242627824182E-19   2.40584796897021E-02   9.75941520310298E-01   5.98242627824182E-19   2.40584796897021E-02
     -1.00000000000000E+00   8.73198187325552E+23
      3.00000000000000E-11
      0.00000000000000E+00   0.00000000000000E+00   0.00000000000000E+00   3.31201860952265E+01   7.16085931596092E+00
      6.59235349015130E-19   4.02810454111874E+01  -1.10758794429690E-23   0.00000000000000E+00   0.00000000000000E+00
      0.00000000000000E+00  -5.63076743001269E+01  -7.18280206178702E+00  -2.28095430759235E-18  -6.34904763619140E+01
      5.10322090375704E-23   9.75941520310298E-01   5.98242627824182E-19   2.40584796897021E-02   9.75941520310298E-01
      5.98242627824182E-19   2.40584796897021E-02   9.75941520310298E-01   5.98242627824182E-19   2.40584796897021E-02
     -1.00000000000000E+00   8.73198187325552E+23
      7.00000000000000E-11
      0.00000000000000E+00   0.00000000000000E+00   0.00000000000000E+00   4.83966260650599E+01   1.18500005714417E+01
      3.74445678240594E-18   6.02466266365016E+01  -2.78976076072052E-23   0.00000000000000E+00   0.00000000000000E+00
      0.00000000000000E+00  -5.76197192380204E+01  -1.18638958318138E+01   2.18866135873023E-18  -6.94836150698342E+01
      2.21895605222621E-23   9.75941520310298E-01   5.98242627824182E-19   2.40584796897021E-02   9.75941520310298E-01
      5.98242627824182E-19   2.40584796897021E-02   9.75941520310298E-01   5.98242627824182E-19   2.40584796897021E-02
     -1.00000000000000E+00   8.73198187325552E+23
      1.50000000000000E-10
      0.00000000000000E+00   0.00000000000000E+00   0.00000000000000E+00   5.20100676458535E+01   1.79039436199868E+01
      5.37936044796346E-18   6.99140112658403E+01  -1.17941105331274E-23   0.00000000000000E+00   0.00000000000000E+00
      0.00000000000000E+00  -5.67289212215479E+01  -1.79129229393244E+01   5.85400989925436E-18  -7.46418441608723E+01
      6.20324852078911E-23   9.75941520310298E-01   5.98242627824182E-19   2.40584796897021E-02   9.75941520310298E-01
      5.98242627824182E-19   2.40584796897021E-02   9.75941520310298E-01   5.98242627824182E-19   2.40584796897021E-02
     -1.00000000000000E+00   8.73198187325552E+23
      3.10000000000000E-10
      0.00000000000000E+00   0.00000000000000E+00   0.00000000000000E+00   4.69588803120708E+01   2.55618246966265E+01
      3.92904268013018E-18   7.25207050086973E+01  -2.33992128846341E-23   0.00000000000000E+00   0.00000000000000E+00
      0.00000000000000E+00  -5.36133824205551E+01  -2.55675037602099E+01   6.85604762975736E-19  -7.91808861807649E+01
     -3.03547139682734E-23   9.75941520310298E-01   5.98242627824182E-19   2.40584796897021E-02   9.75941520310298E-01
      5.98242627824182E-19   2.40584796897021E-02   9.75941520310298E-01   5.98242627824182E-19   2.40584796897021E-02
     -1.00000000000000E+00   8.73198187325552E+23
      6.30000000000000E-10
      0.00000000000000E+00   0.00000000000000E+00   0.00000000000000E+00   3.82597363312545E+01   3.47082073708242E+01
      2.76878846586355E-18   7.29679437020786E+01  -1.18697138057756E-23   0.00000000000000E+00   0.00000000000000E+00
      0.00000000000000E+00  -4.73107782064387E+01  -3.47116019862900E+01   2.80834258680446E-17  -8.20223801927287E+01
     -1.11212414065579E-22   9.75941520310298E-01   5.98242627824182E-19   2.40584796897021E-02   9.75941520310298E-01
      5.98242627824182E-19   2.40584796897021E-02   9.75941520310298E-01   5.98242627824182E-19   2.40584796897021E-02
     -1.00000000000000E+00   8.73198187325552E+23
      1.27000000000000E-09
      0.00000000000000E+00   0.00000000000000E+00   0.00000000000000E+00   2.80733615081816E+01   4.49593551704017E+01
      8.46458188135428E-18   7.30327166785833E+01   6.35067490245321E-24   0.00000000000000E+00   0.00000000000000E+00
      0.00000000000000E+00  -3.81344473553158E+01  -4.49612592605122E+01  -1.95661051587691E-17  -8.30957066158280E+01
      5.89705526656369E-23   9.75941520310298E-01   5.98242627824182E-19   2.40584796897021E-02   9.75941520310298E-01
      5.98242627824182E-19   2.40584796897021E-02   9.75941520310298E-01   5.98242627824182E-19   2.40584796897021E-02
     -1.00000000000000E+00   8.73198187325552E+23
      2.55000000000000E-09
      0.00000000000000E+00   0.00000000000000E+00   0.00000000000000E+00   1.72018906682532E+01   5.58394449050679E+01
      6.19681228074223E-18   7.30413355733211E+01  -3.58359512352717E-23   0.00000000000000E+00   0.00000000000000E+00
      0.00000000000000E+00  -2.74784690103941E+01  -5.58404558314443E+01  -1.39494199851602E-17  -8.33189248418384E+01
     -2.00348672517869E-24   9.75941520310298E-01   5.98242627824182E-19   2.40584796897021E-02   9.75941520310298E-01
      5.98242627824182E-19   2.40584796897021E-02   9.75941520310298E-01   5.98242627824182E-19   2.40584796897021E-02
     -1.00000000000000E+00   8.73198187325552E+23
      5.11000000000000E-09
      0.00000000000000E+00   0.00000000000000E+00   0.00000000000000E+00   6.73354841184216E+00   6.63089068918527E+01
      8.17451832778762E-19   7.30424553036949E+01   5.28466875811285E-23   0.00000000000000E+00   0.00000000000000E+00
      0.00000000000000E+00  -1.70322252772164E+01  -6.63093934179673E+01   1.37120952595147E-17  -8.33416186951837E+01
      3.53067283267339E-23   9.75941520310298E-01   5.98242627824182E-19   2.40584796897021E-02   9.75941520310298E-01
      5.98242627824182E-19   2.40584796897021E-02   9.75941520310298E-01   5.98242627824182E-19   2.40584796897021E-02
     -1.00000000000000E+00   8.73198187325552E+23
      1.02300000000000E-08
      0.00000000000000E+00   0.00000000000000E+00   0.00000000000000E+00  -1.33393068255069E+00   7.43768156650799E+01
      2.47872491229689E-18   7.30428849825292E+01   6.84209617466685E-24   0.00000000000000E+00   0.00000000000000E+00
      0.00000000000000E+00  -8.96366983988248E+00  -7.43770032270537E+01  -6.17044286678162E-18  -8.33406730669362E+01
      1.07583456978463E-22   9.75941520310298E-01   5.98242627824182E-19   2.40584796897021E-02   9.75941520310298E-01
      5.98242627824182E-19   2.40584796897021E-02   9.75941520310298E-01   5.98242627824182E-19   2.40584796897021E-02
     -1.00000000000000E+00   8.73198187325552E+23
      2.04700000000000E-08
      0.00000000000000E+00   0.00000000000000E+00   0.00000000000000E+00  -5.59149338506660E+00   7.86347409286693E+01
      3.90267326616957E-18   7.30432475436027E+01   6.50188144774971E-24   0.00000000000000E+00   0.00000000000000E+00
      0.00000000000000E+00  -4.70329376284910E+00  -7.86347905299897E+01  -4.11626551925047E-17  -8.33380842928388E+01
      2.97498877870873E-23   9.75941520310298E-01   5.98242627824182E-19   2.40584796897021E-02   9.75941520310298E-01
      5.98242627824182E-19   2.40584796897021E-02   9.75941520310298E-01   5.98242627824182E-19   2.40584796897021E-02
     -1.00000000000000E+00   8.73198187325552E+23
      4.09500000000000E-08
      0.00000000000000E+00   0.00000000000000E+00   0.00000000000000E+00  -6.98928853331816E+00   8.00330016102668E+01
      6.69783114599373E-18   7.30437130769486E+01  -3.40214726917136E-25   0.00000000000000E+00   0.00000000000000E+00
      0.00000000000000E+00  -3.30120303850074E+00  -8.00330098770268E+01   3.27771815530323E-17  -8.33342129155275E+01
      5.51903890332243E-23   9.75941520310298E-01   5.98242627824182E-19   2.40584796897021E-02   9.75941520310298E-01
      5.98242627824182E-19   2.40584796897021E-02   9.75941520310298E-01   5.98242627824182E-19   2.40584796897021E-02
     -1.00000000000000E+00   8.73198187325552E+23
      8.19100000000000E-08
      0.00000000000000E+00   0.00000000000000E+00   0.00000000000000E+00  -7.34006477100505E+00   8.03846318976864E+01
      3.74445678240594E-18   7.30445671266814E+01   2.40796423384684E-23   0.00000000000000E+00   0.00000000000000E+00
      0.00000000000000E+00  -2.94257057244109E+00  -8.03846330696712E+01   1.70610108325116E-17  -8.33272036421123E+01
      8.89472502706690E-23   9.75941520310298E-01   5.98242627824182E-19   2.40584796897021E-02   9.75941520310298E-01
      5.98242627824182E-19   2.40584796897021E-02   9.75941520310298E-01   5.98242627824182E-19   2.40584796897021E-02
     -1.00000000000000E+00   8.73198187325552E+23
      1.63830000000000E-07
      0.00000000000000E+00   0.00000000000000E+00   0.00000000000000E+00  -7.50027201110749E+00   8.05465552261498E+01
      4.61464744310591E-18   7.30462832150424E+01  -4.98981599478466E-24   0.00000000000000E+00   0.00000000000000E+00
      0.00000000000000E+00  -2.76736404810834E+00  -8.05465556201493E+01   3.32254615903626E-18  -8.33139196682576E+01
      3.43616874186307E-23   9.75941520310298E-01   5.98242627824182E-19   2.40584796897021E-02   9.75941520310298E-01
      5.98242627824182E-19   2.40584796897021E-02   9.75941520310298E-01   5.98242627824182E-19   2.40584796897021E-02
     -1.00000000000000E+00   8.73198187325552E+23
      3.27670000000000E-07
      0.00000000000000E+00   0.00000000000000E+00   0.00000000000000E+00  -7.58564327816895E+00   8.06353730624112E+01
      8.70190660699972E-19   7.30497297842422E+01   1.66327199826155E-24   0.00000000000000E+00   0.00000000000000E+00
      0.00000000000000E+00  -2.65280079259970E+00  -8.06353732981130E+01   1.76411379396449E-17  -8.32881740907127E+01
     -4.35096834090693E-23   9.75941520310298E-01   5.98242627824182E-19   2.40584796897021E-02   9.75941520310298E-01
      5.98242627824182E-19   2.40584796897021E-02   9.75941520310298E-01   5.98242627824182E-19   2.40584796897021E-02
     -1.00000000000000E+00   8.73198187325552E+23
      6.55350000000000E-07
      0.00000000000000E+00   0.00000000000000E+00   0.00000000000000E+00  -7.46707907055344E+00   8.05235249707334E+01
      1.95133663308479E-18   7.30564459001800E+01   3.74614215972091E-23   0.00000000000000E+00   0.00000000000000E+00
      0.00000000000000E+00  -2.71101280003500E+00  -8.05235251210862E+01   1.77202461815267E-17  -8.32345379211211E+01
      5.55684053964656E-24   9.75941520310298E-01   5.98242627824182E-19   2.40584796897021E-02   9.75941520310298E-01
      5.98242627824182E-19   2.40584796897021E-02   9.75941520310298E-01   5.98242627824182E-19   2.40584796897021E-02
     -1.00000000000000E+00   8.73198187325552E+23
      9.83030000000000E-07
      0.00000000000000E+00   0.00000000000000E+00   0.00000000000000E+00  -7.13680806214446E+00   8.01995916425258E+01
     -4.19273681973623E-18   7.30627835803813E+01   5.59464217597068E-24   0.00000000000000E+00   0.00000000000000E+00
      0.00000000000000E+00  -2.97457440730616E+00  -8.01995917394150E+01   4.63310603287834E-17  -8.31741661467211E+01
      4.91043255850400E-23   9.75941520310298E-01   5.98242627824182E-19   2.40584796897021E-02   9.75941520310298E-01
      5.98242627824182E-19   2.40584796897021E-02   9.75941520310298E-01   5.98242627824182E-19   2.40584796897021E-02
     -1.00000000000000E+00   8.73198187325552E+23
      1.63839000000000E-06
      0.00000000000000E+00   0.00000000000000E+00   0.00000000000000E+00  -6.37739845068926E+00   7.94513334001824E+01
     -2.84789670774536E-18   7.30739349494931E+01   2.68769634264537E-23   0.00000000000000E+00   0.00000000000000E+00
      0.00000000000000E+00  -3.57123914279401E+00  -7.94513335045598E+01  -1.08641985517693E-17  -8.30225726473538E+01
      1.00023129713638E-22   9.75941520310298E-01   5.98242627824182E-19   2.40584796897021E-02   9.75941520310298E-01
      5.98242627824182E-19   2.40584796897021E-02   9.75941520310298E-01   5.98242627824182E-19   2.40584796897021E-02
     -1.00000000000000E+00   8.73198187325552E+23
      2.94911000000000E-06
      0.00000000000000E+00   0.00000000000000E+00   0.00000000000000E+00  -5.43848046802217E+00   7.85309372782536E+01
      9.17655605829062E-18   7.30924568102314E+01  -8.42976490028015E-24   0.00000000000000E+00   0.00000000000000E+00
      0.00000000000000E+00  -4.10381457796885E+00  -7.85309374967425E+01   4.35359024489592E-17  -8.26347520747114E+01
      9.03459108146617E-23   9.75941520310298E-01   5.98242627824182E-19   2.40584796897021E-02   9.75941520310298E-01
      5.98242627824182E-19   2.40584796897021E-02   9.75941520310298E-01   5.98242627824182E-19   2.40584796897021E-02
     -1.00000000000000E+00   8.73198187325552E+23
      5.57055000000000E-06
      0.00000000000000E+00   0.00000000000000E+00   0.00000000000000E+00  -4.30673822429071E+00   7.74272197457861E+01
      4.98381923855439E-18   7.31204815214954E+01  -4.98981599478466E-23   0.00000000000000E+00   0.00000000000000E+00
      0.00000000000000E+00  -4.13243550250164E+00  -7.74272201491358E+01   5.53757693172710E-18  -8.15596556516375E+01
      9.70368004440320E-23   9.75941520310298E-01   5.98242627824182E-19   2.40584796897021E-02   9.75941520310298E-01
      5.98242627824182E-19   2.40584796897021E-02   9.75941520310298E-01   5.98242627824182E-19   2.40584796897021E-02
     -1.00000000000000E+00   8.73198187325552E+23
      8.19199000000000E-06
      0.00000000000000E+00   0.00000000000000E+00   0.00000000000000E+00  -2.70716842929358E+00   7.58444053633856E+01
      9.69075963052242E-18   7.31372369340920E+01  -3.78016363241262E-24   0.00000000000000E+00   0.00000000000000E+00
      0.00000000000000E+00  -1.49984239108550E+00  -7.58444058052853E+01   4.22965399928108E-17  -7.73442481963708E+01
     -1.03727690073402E-22   9.75941520310298E-01   5.98242627824182E-19   2.40584796897021E-02   9.75941520310298E-01
      5.98242627824182E-19   2.40584796897021E-02   9.75941520310298E-01   5.98242627824182E-19   2.40584796897021E-02
     -1.00000000000000E+00   8.73198187325552E+23
      1.08134300000000E-05
      0.00000000000000E+00   0.00000000000000E+00   0.00000000000000E+00  -5.09730645389075E-01   7.36500007851796E+01
      1.08114597238481E-18   7.31402701397906E+01  -6.91769944731510E-24   0.00000000000000E+00   0.00000000000000E+00
      0.00000000000000E+00  -2.85563286973556E-01  -7.36500008054044E+01   9.78305257938454E-18  -7.39355640923779E+01
      9.46552973556121E-23   9.75941520310298E-01   5.98242627824182E-19   2.40584796897021E-02   9.75941520310298E-01
      5.98242627824182E-19   2.40584796897021E-02   9.75941520310298E-01   5.98242627824182E-19   2.40584796897021E-02
     -1.00000000000000E+00   8.73198187325552E+23
      1.60563100000000E-05
      0.00000000000000E+00   0.00000000000000E+00   0.00000000000000E+00  -2.56975328136485E-02   7.31662658781654E+01
      1.99089075402569E-18   7.31405683453517E+01  -4.53997652252756E-23   0.00000000000000E+00   0.00000000000000E+00
      0.00000000000000E+00  -2.29728106870884E-02  -7.31662658730011E+01   1.80366791490540E-17  -7.31892386836882E+01
     -3.42482825096584E-23   9.75941520310298E-01   5.98242627824182E-19   2.40584796897021E-02   9.75941520310298E-01
      5.98242627824182E-19   2.40584796897021E-02   9.75941520310298E-01   5.98242627824182E-19   2.40584796897021E-02
     -1.00000000000000E+00   8.73198187325552E+23
      2.65420700000000E-05
      0.00000000000000E+00   0.00000000000000E+00   0.00000000000000E+00  -4.72379899679053E-04   7.31410514992998E+01
     -4.48280037330289E-18   7.31405791194001E+01  -2.08287016145936E-23   0.00000000000000E+00   0.00000000000000E+00
      0.00000000000000E+00  -7.03130669507254E-04  -7.31410514995096E+01   4.13999799181502E-17  -7.31417546301791E+01
      2.55539061551093E-23   9.75941520310298E-01   5.98242627824182E-19   2.40584796897021E-02   9.75941520310298E-01
      5.98242627824182E-19   2.40584796897021E-02   9.75941520310298E-01   5.98242627824182E-19   2.40584796897021E-02
     -1.00000000000000E+00   8.73198187325552E+23
      4.75135900000000E-05
      0.00000000000000E+00   0.00000000000000E+00   0.00000000000000E+00   1.54163551234554E-07   7.31405789457496E+01
      2.42598608437568E-18   7.31405790999131E+01   5.56062070327897E-23   0.00000000000000E+00   0.00000000000000E+00
      0.00000000000000E+00  -8.70309945231102E-06  -7.31405789456243E+01  -8.22725715570883E-18  -7.31405876487238E+01
     -3.76126281425056E-23   9.75941520310298E-01   5.98242627824182E-19   2.40584796897021E-02   9.75941520310298E-01
      5.98242627824182E-19   2.40584796897021E-02   9.75941520310298E-01   5.98242627824182E-19   2.40584796897021E-02
     -1.00000000000000E+00   8.73198187325552E+23
      8.94566300000000E-05
      0.00000000000000E+00   0.00000000000000E+00   0.00000000000000E+00   8.78905718294855E-08   7.31405790035444E+01
      3.69171795448473E-18   7.31405790914349E+01  -6.97440190180129E-23   0.00000000000000E+00   0.00000000000000E+00
      0.00000000000000E+00  -3.33683493388682E-08  -7.31405790036358E+01  -3.19333603062929E-17  -7.31405790370041E+01
     -5.85925363023957E-24   9.75941520310298E-01   5.98242627824182E-19   2.40584796897021E-02   9.75941520310298E-01
      5.98242627824182E-19   2.40584796897021E-02   9.75941520310298E-01   5.98242627824182E-19   2.40584796897021E-02
     -1.00000000000000E+00   8.73198187325552E+23
      1.73342710000000E-04
      0.00000000000000E+00   0.00000000000000E+00   0.00000000000000E+00   8.05292510375217E-10   7.31405790904700E+01
      4.72012509894833E-18   7.31405790912753E+01  -8.23319639139469E-23   0.00000000000000E+00   0.00000000000000E+00
      0.00000000000000E+00   1.67735887769757E-10  -7.31405790905180E+01  -3.49658429117625E-17  -7.31405790903502E+01
     -1.54608692565676E-23   9.75941520310298E-01   5.98242627824182E-19   2.40584796897021E-02   9.75941520310298E-01
      5.98242627824182E-19   2.40584796897021E-02   9.75941520310298E-01   5.98242627824182E-19   2.40584796897021E-02
     -1.00000000000000E+00   8.73198187325552E+23
      3.41114870000000E-04
      0.00000000000000E+00   0.00000000000000E+00   0.00000000000000E+00   1.04228091587399E-10   7.31405790911700E+01
      4.03452033597260E-18   7.31405790912742E+01   1.16391238241985E-22   0.00000000000000E+00   0.00000000000000E+00
      0.00000000000000E+00  -3.58979845656986E-10  -7.31405790909089E+01  -7.19885001124522E-18  -7.31405790912679E+01
     -6.65308799304622E-24   9.75941520310298E-01   5.98242627824182E-19   2.40584796897021E-02   9.75941520310298E-01
      5.98242627824182E-19   2.40584796897021E-02   9.75941520310298E-01   5.98242627824182E-19   2.40584796897021E-02
     -1.00000000000000E+00   8.73198187325552E+23
      6.76659190000000E-04
      0.00000000000000E+00   0.00000000000000E+00   0.00000000000000E+00  -1.58894976801140E-10   7.31405790914331E+01
      5.27388279212104E-20   7.31405790912742E+01   6.42249801146905E-23   0.00000000000000E+00   0.00000000000000E+00
      0.00000000000000E+00   7.03025216344721E-11  -7.31405790913445E+01   1.45031776783329E-17  -7.31405790912742E+01
      1.08868712613484E-23   9.75941520310298E-01   5.98242627824182E-19   2.40584796897021E-02   9.75941520310298E-01
      5.98242627824182E-19   2.40584796897021E-02   9.75941520310298E-01   5.98242627824182E-19   2.40584796897021E-02
     -1.00000000000000E+00   8.73198187325552E+23
      1.34774783000000E-03
      0.00000000000000E+00   0.00000000000000E+00   0.00000000000000E+00  -1.80644543692116E-10   7.31405790914548E+01
      6.80330880183615E-18   7.31405790912742E+01   6.25617081164289E-23   0.00000000000000E+00   0.00000000000000E+00
      0.00000000000000E+00   3.78377345204802E-11  -7.31405790913120E+01  -1.18398668683117E-17  -7.31405790912742E+01
      1.30415645318235E-23   9.75941520310298E-01   5.98242627824182E-19   2.40584796897021E-02   9.75941520310298E-01
      5.98242627824182E-19   2.40584796897021E-02   9.75941520310298E-01   5.98242627824182E-19   2.40584796897021E-02
     -1.00000000000000E+00   8.73198187325552E+23
      2.68992511000000E-03
      0.00000000000000E+00   0.00000000000000E+00   0.00000000000000E+00  -1.67382596690172E-10   7.31405790914416E+01
      3.26980733111505E-18   7.31405790912742E+01   5.74206855763477E-23   0.00000000000000E+00   0.00000000000000E+00
      0.00000000000000E+00   5.35180327121595E-11  -7.31405790913277E+01   1.52678906831904E-17  -7.31405790912742E+01
      1.30415645318235E-23   9.75941520310298E-01   5.98242627824182E-19   2.40584796897021E-02   9.75941520310298E-01
      5.98242627824182E-19   2.40584796897021E-02   9.75941520310298E-01   5.98242627824182E-19   2.40584796897021E-02
     -1.00000000000000E+00   8.73198187325552E+23
      5.37427967000000E-03
      0.00000000000000E+00   0.00000000000000E+00   0.00000000000000E+00  -1.67382529184473E-10   7.31405790914416E+01
      1.08114597238481E-18   7.31405790912742E+01   8.28233851861606E-23   0.00000000000000E+00   0.00000000000000E+00
      0.00000000000000E+00   3.52729702185807E-11  -7.31405790913095E+01   2.08582064428387E-17  -7.31405790912742E+01
      1.54608692565676E-23   9.75941520310298E-01   5.98242627824182E-19   2.40584796897021E-02   9.75941520310298E-01
      5.98242627824182E-19   2.40584796897021E-02   9.75941520310298E-01   5.98242627824182E-19   2.40584796897021E-02
     -1.00000000000000E+00   8.73198187325552E+23
      1.07429887900000E-02
      0.00000000000000E+00   0.00000000000000E+00   0.00000000000000E+00  -1.80644469435847E-10   7.31405790914548E+01
      5.37936044796346E-18   7.31405790912742E+01   4.36230883180417E-23   0.00000000000000E+00   0.00000000000000E+00
      0.00000000000000E+00   3.53126095654676E-11  -7.31405790913095E+01   1.80103097350934E-17  -7.31405790912742E+01
      2.11689163415107E-23   9.75941520310298E-01   5.98242627824182E-19   2.40584796897021E-02   9.75941520310298E-01
      5.98242627824182E-19   2.40584796897021E-02   9.75941520310298E-01   5.98242627824182E-19   2.40584796897021E-02
     -1.00000000000000E+00   8.73198187325552E+23
      2.14804070300000E-02
      0.00000000000000E+00   0.00000000000000E+00   0.00000000000000E+00  -1.72156829295104E-10   7.31405790914463E+01
      6.32865935054525E-18   7.31405790912742E+01   9.25006040851369E-23   0.00000000000000E+00   0.00000000000000E+00
      0.00000000000000E+00   5.35132735603279E-11  -7.31405790913277E+01   1.19189751101936E-17  -7.31405790912742E+01
      2.15091310684278E-23   9.75941520310298E-01   5.98242627824182E-19   2.40584796897021E-02   9.75941520310298E-01
      5.98242627824182E-19   2.40584796897021E-02   9.75941520310298E-01   5.98242627824182E-19   2.40584796897021E-02
     -1.00000000000000E+00   8.73198187325552E+23
      4.29552435100000E-02
      0.00000000000000E+00   0.00000000000000E+00   0.00000000000000E+00  -1.67382556186752E-10   7.31405790914416E+01
      7.91082418818157E-19   7.31405790912742E+01   1.02442434438382E-23   0.00000000000000E+00   0.00000000000000E+00
      0.00000000000000E+00   5.43750378220579E-11  -7.31405790913286E+01   1.31847069803026E-17  -7.31405790912742E+01
      9.41260744470743E-24   9.75941520310298E-01   5.98242627824182E-19   2.40584796897021E-02   9.75941520310298E-01
      5.98242627824182E-19   2.40584796897021E-02   9.75941520310298E-01   5.98242627824182E-19   2.40584796897021E-02
     -1.00000000000000E+00   8.73198187325552E+23
      8.59049164700000E-02
      0.00000000000000E+00   0.00000000000000E+00   0.00000000000000E+00  -1.80644428932427E-10   7.31405790914548E+01
      4.95744982459378E-18   7.31405790912742E+01   3.59493561442440E-23   0.00000000000000E+00   0.00000000000000E+00
      0.00000000000000E+00   3.53108746689843E-11  -7.31405790913095E+01   6.61872290411191E-18  -7.31405790912742E+01
      8.46756653660427E-24   9.75941520310298E-01   5.98242627824182E-19   2.40584796897021E-02   9.75941520310298E-01
      5.98242627824182E-19   2.40584796897021E-02   9.75941520310298E-01   5.98242627824182E-19   2.40584796897021E-02
     -1.00000000000000E+00   8.73198187325552E+23
      1.00000000000000E-01
      0.00000000000000E+00   0.00000000000000E+00   0.00000000000000E+00  -1.67382643944162E-10   7.31405790914416E+01
      3.40165440091807E-18   7.31405790912742E+01   6.22592950258359E-23   0.00000000000000E+00   0.00000000000000E+00
      0.00000000000000E+00   3.27567290136538E-11  -7.31405790913069E+01   2.34160395970174E-17  -7.31405790912742E+01
      3.02413090593010E-23   9.75941520310298E-01   5.98242627824182E-19   2.40584796897021E-02   9.75941520310298E-01
      5.98242627824182E-19   2.40584796897021E-02   9.75941520310298E-01   5.98242627824182E-19   2.40584796897021E-02
     -1.00000000000000E+00   8.73198187325552E+23
      1.00000000000000E-02
      0.00000000000000E+00   0.00000000000000E+00   0.00000000000000E+00   0.00000000000000E+00   7.31386265688098E+01
      6.70347713623871E-18   7.31386265688098E+01  -4.46815341351172E-23   3.50000000000000E-02   3.50000000000000E-02
      0.00000000000000E+00   0.00000000000000E+00  -7.31386265688406E+01   3.07478103153474E-11  -7.31386265688098E+01
     -9.14799599043855E-24   9.75941520310298E-01   5.98242627824182E-19   2.40584796897021E-02   9.75941520310298E-01
      5.98242627824182E-19   2.40584796897021E-02   9.75941520310298E-01   5.98242627824182E-19   2.40584796897021E-02
     -1.00000000000000E+00   8.73198187325552E+23
      2.00000000000000E-02
      0.00000000000000E+00   0.00000000000000E+00   0.00000000000000E+00   0.00000000000000E+00   7.31366549292979E+01
      2.56953522540825E-17   7.31366549292979E+01   5.64000413955963E-23   7.00000000000000E-02   7.00000000000000E-02
      0.00000000000000E+00   0.00000000000000E+00  -7.31366549292894E+01  -8.54678663737101E-12  -7.31366549292979E+01
      4.55887734068962E-23   9.75941520310298E-01   5.98242627824182E-19   2.40584796897021E-02   9.75941520310298E-01
      5.98242627824182E-19   2.40584796897021E-02   9.75941520310298E-01   5.98242627824182E-19   2.40584796897021E-02
     -1.00000000000000E+00   8.73198187325552E+23
      3.00000000000000E-02
      0.00000000000000E+00   0.00000000000000E+00   0.00000000000000E+00   0.00000000000000E+00   7.31346638707201E+01
     -7.24618104919404E-18   7.31346638707201E+01   4.05611557757874E-23   1.05000000000000E-01   1.05000000000000E-01
      0.00000000000000E+00   0.00000000000000E+00  -7.31346638706969E+01  -2.32142404677224E-11  -7.31346638707201E+01
     -4.54375668615997E-23   9.75941520310298E-01   5.98242627824182E-19   2.40584796897021E-02   9.75941520310298E-01
      5.98242627824182E-19   2.40584796897021E-02   9.75941520310298E-01   5.98242627824182E-19   2.40584796897021E-02
     -1.00000000000000E+00   8.73198187325552E+23
      4.00000000000000E-02
      0.00000000000000E+00   0.00000000000000E+00   0.00000000000000E+00   0.00000000000000E+00   7.31326530587741E+01
     -1.68040571168354E-17   7.31326530587741E+01   2.04128836150282E-24   1.40000000000000E-01   1.40000000000000E-01
      0.00000000000000E+00   0.00000000000000E+00  -7.31326530588215E+01   4.74227531273421E-11  -7.31326530587741E+01
      3.26228121477209E-23   9.75941520310298E-01   5.98242627824182E-19   2.40584796897021E-02   9.75941520310298E-01
      5.98242627824182E-19   2.40584796897021E-02   9.75941520310298E-01   5.98242627824182E-19   2.40584796897021E-02
     -1.00000000000000E+00   8.73198187325552E+23
      5.00000000000000E-02
      0.00000000000000E+00   0.00000000000000E+00   0.00000000000000E+00   0.00000000000000E+00   7.31306221386380E+01
      2.39271916306220E-17   7.31306221386380E+01   4.52863603163032E-23   1.75000000000000E-01   1.75000000000000E-01
      0.00000000000000E+00   0.00000000000000E+00  -7.31306221386755E+01   3.74752791004680E-11  -7.31306221386380E+01
      3.68565954160231E-23   9.75941520310298E-01   5.98242627824182E-19   2.40584796897021E-02   9.75941520310298E-01
      5.98242627824182E-19   2.40584796897021E-02   9.75941520310298E-01   5.98242627824182E-19   2.40584796897021E-02
     -1.00000000000000E+00   8.73198187325552E+23
      6.00000000000000E-02