DF-ISE text

Info {
  version   = 1.0
  type      = xyplot
  datasets  = [
    "time"
    "back OuterVoltage" "back InnerVoltage" "back QuasiFermiPotential" "back DisplacementCurrent" "back eCurrent"
    "back hCurrent" "back TotalCurrent" "back Charge" "front OuterVoltage" "front InnerVoltage"
    "front QuasiFermiPotential" "front DisplacementCurrent" "front eCurrent" "front hCurrent" "front TotalCurrent"
    "front Charge" "Stripe0 R_TE" "Stripe0 T_TE" "Stripe0 A_TE" "Stripe0 R_TM"
    "Stripe0 T_TM" "Stripe0 A_TM" "Stripe0 R_Total" "Stripe0 T_Total" "Stripe0 A_Total"
    "Device=,File=CommandFile/Physics,DefaultRegionPhysics,Model=Optics,Parameter=Wavelength" "IntegrSemiconductor OpticalGeneration" ]
  functions = [
    Time
    OuterVoltage InnerVoltage QuasiFermiPotential DisplacementCurrent eCurrent
    hCurrent TotalCurrent Charge OuterVoltage InnerVoltage
    QuasiFermiPotential DisplacementCurrent eCurrent hCurrent TotalCurrent
    Charge R_TE T_TE A_TE R_TM
    T_TM A_TM R_Total T_Total A_Total
    Parameter OpticalGeneration ]
}

Data {
      0.00000000000000E+00
      0.00000000000000E+00   0.00000000000000E+00   0.00000000000000E+00   0.00000000000000E+00   6.94305932828331E+02
     -6.94305932828331E+02  -1.62013679373958E-16   8.52426899109046E-23   0.00000000000000E+00   0.00000000000000E+00
      0.00000000000000E+00   0.00000000000000E+00   5.59200544203910E+02  -5.59200544203910E+02   1.62013679373958E-16
     -1.19566575693211E-22   9.75941520310298E-01   5.98242627824182E-19   2.40584796897021E-02   9.75941520310298E-01
      5.98242627824182E-19   2.40584796897021E-02   9.75941520310298E-01   5.98242627824182E-19   2.40584796897021E-02
     -1.00000000000000E+00   8.73198187325552E+24
      1.00000000000000E-11
      0.00000000000000E+00   0.00000000000000E+00   0.00000000000000E+00   1.47244896588963E+02   3.38756423853082E+01
      1.35011399478299E-17   1.81120538974271E+02  -4.14305934112423E-23   0.00000000000000E+00   0.00000000000000E+00
      0.00000000000000E+00  -4.73478006608322E+02  -3.42227507832980E+01  -7.80534653233914E-18  -5.07700757391620E+02
      5.51903890332243E-23   9.75941520310298E-01   5.98242627824182E-19   2.40584796897021E-02   9.75941520310298E-01
      5.98242627824182E-19   2.40584796897021E-02   9.75941520310298E-01   5.98242627824182E-19   2.40584796897021E-02
     -1.00000000000000E+00   8.73198187325552E+24
      3.00000000000000E-11
      0.00000000000000E+00   0.00000000000000E+00   0.00000000000000E+00   3.31172479166463E+02   7.15981619867401E+01
      8.12177949986641E-18   4.02770641153203E+02  -1.93922394342768E-23   0.00000000000000E+00   0.00000000000000E+00
      0.00000000000000E+00  -5.63044824696314E+02  -7.18175428469481E+01  -6.53961466223009E-18  -6.34862367543262E+02
     -9.29920253573505E-24   9.75941520310298E-01   5.98242627824182E-19   2.40584796897021E-02   9.75941520310298E-01
      5.98242627824182E-19   2.40584796897021E-02   9.75941520310298E-01   5.98242627824182E-19   2.40584796897021E-02
     -1.00000000000000E+00   8.73198187325552E+24
      7.00000000000000E-11
      0.00000000000000E+00   0.00000000000000E+00   0.00000000000000E+00   4.83893633454791E+02   1.18460004890089E+02
      1.51887824413086E-17   6.02353638344880E+02   3.97295197766567E-23   0.00000000000000E+00   0.00000000000000E+00
      0.00000000000000E+00  -5.76168964364255E+02  -1.18598872385439E+02   0.00000000000000E+00  -6.94767836749694E+02
      6.84209617466685E-24   9.75941520310298E-01   5.98242627824182E-19   2.40584796897021E-02   9.75941520310298E-01
      5.98242627824182E-19   2.40584796897021E-02   9.75941520310298E-01   5.98242627824182E-19   2.40584796897021E-02
     -1.00000000000000E+00   8.73198187325552E+24
      1.50000000000000E-10
      0.00000000000000E+00   0.00000000000000E+00   0.00000000000000E+00   5.20069881775914E+02   1.78914090726167E+02
      1.68764249347873E-18   6.98983972502081E+02   6.72869126569447E-23   0.00000000000000E+00   0.00000000000000E+00
      0.00000000000000E+00  -5.67303933532299E+02  -1.79003760574890E+02  -1.71945059906871E-17  -7.46307694107189E+02
     -2.40796423384684E-23   9.75941520310298E-01   5.98242627824182E-19   2.40584796897021E-02   9.75941520310298E-01
      5.98242627824182E-19   2.40584796897021E-02   9.75941520310298E-01   5.98242627824182E-19   2.40584796897021E-02
     -1.00000000000000E+00   8.73198187325552E+24
      3.10000000000000E-10
      0.00000000000000E+00   0.00000000000000E+00   0.00000000000000E+00   4.69779601240023E+02   2.55279908540058E+02
     -9.28203371413304E-18   7.25059509780080E+02  -4.08257672300563E-24   0.00000000000000E+00   0.00000000000000E+00
      0.00000000000000E+00  -5.36289899618976E+02  -2.55336544516604E+02   1.01258549608724E-17  -7.91626444135580E+02
     -6.39603686604216E-23   9.75941520310298E-01   5.98242627824182E-19   2.40584796897021E-02   9.75941520310298E-01
      5.98242627824182E-19   2.40584796897021E-02   9.75941520310298E-01   5.98242627824182E-19   2.40584796897021E-02
     -1.00000000000000E+00   8.73198187325552E+24
      6.30000000000000E-10
      0.00000000000000E+00   0.00000000000000E+00   0.00000000000000E+00   3.83264338190117E+02   3.46296228728185E+02
     -7.28850601871128E-17   7.29560566918302E+02   1.85984050714701E-23   0.00000000000000E+00   0.00000000000000E+00
      0.00000000000000E+00  -4.73613271611738E+02  -3.46330011951978E+02  -2.52724463398440E-16  -8.19943283563716E+02
      5.05407877653568E-23   9.75941520310298E-01   5.98242627824182E-19   2.40584796897021E-02   9.75941520310298E-01
      5.98242627824182E-19   2.40584796897021E-02   9.75941520310298E-01   5.98242627824182E-19   2.40584796897021E-02
     -1.00000000000000E+00   8.73198187325552E+24
      1.27000000000000E-09
      0.00000000000000E+00   0.00000000000000E+00   0.00000000000000E+00   2.82196475812516E+02   4.48045777208935E+02
      4.85197216875136E-17   7.30242253021451E+02  -8.31635999130777E-24   0.00000000000000E+00   0.00000000000000E+00
      0.00000000000000E+00  -3.82487732306495E+02  -4.48064679468739E+02   1.83109210542443E-16  -8.30552411775234E+02
     -9.81708495337558E-23   9.75941520310298E-01   5.98242627824182E-19   2.40584796897021E-02   9.75941520310298E-01
      5.98242627824182E-19   2.40584796897021E-02   9.75941520310298E-01   5.98242627824182E-19   2.40584796897021E-02
     -1.00000000000000E+00   8.73198187325552E+24
      2.55000000000000E-09
      0.00000000000000E+00   0.00000000000000E+00   0.00000000000000E+00   1.74505601315456E+02   5.55859928886361E+02
      6.11770403886041E-17   7.30365530201817E+02   2.79354092435293E-23   0.00000000000000E+00   0.00000000000000E+00
      0.00000000000000E+00  -2.76751089150276E+02  -5.55869948930668E+02   1.53997377529934E-16  -8.32621038080944E+02
      6.42627817510146E-23   9.75941520310298E-01   5.98242627824182E-19   2.40584796897021E-02   9.75941520310298E-01
      5.98242627824182E-19   2.40584796897021E-02   9.75941520310298E-01   5.98242627824182E-19   2.40584796897021E-02
     -1.00000000000000E+00   8.73198187325552E+24
      5.11000000000000E-09
      0.00000000000000E+00   0.00000000000000E+00   0.00000000000000E+00   7.06239099390057E+01   6.59791119852052E+02
      4.17691517135987E-17   7.30415029791058E+02  -1.78045707086635E-23   0.00000000000000E+00   0.00000000000000E+00
      0.00000000000000E+00  -1.72846296825800E+02  -6.59795951511582E+02  -2.77617190177252E-16  -8.32642248337382E+02
      4.91043255850400E-23   9.75941520310298E-01   5.98242627824182E-19   2.40584796897021E-02   9.75941520310298E-01
      5.98242627824182E-19   2.40584796897021E-02   9.75941520310298E-01   5.98242627824182E-19   2.40584796897021E-02
     -1.00000000000000E+00   8.73198187325552E+24
      1.02300000000000E-08
      0.00000000000000E+00   0.00000000000000E+00   0.00000000000000E+00  -9.99572253237220E+00   7.40450604099371E+02
     -6.03332191418647E-17   7.30454881566999E+02  -2.63855421542401E-23   0.00000000000000E+00   0.00000000000000E+00
      0.00000000000000E+00  -9.19511927336637E+01  -7.40452480420254E+02  -1.64545143114177E-17  -8.32403673153917E+02
      6.78917388381307E-23   9.75941520310298E-01   5.98242627824182E-19   2.40584796897021E-02   9.75941520310298E-01
      5.98242627824182E-19   2.40584796897021E-02   9.75941520310298E-01   5.98242627824182E-19   2.40584796897021E-02
     -1.00000000000000E+00   8.73198187325552E+24
      2.04700000000000E-08
      0.00000000000000E+00   0.00000000000000E+00   0.00000000000000E+00  -5.27413861480573E+01   7.83231747715758E+02
      7.51000909598037E-17   7.30490361567701E+02   1.77667690723393E-24   0.00000000000000E+00   0.00000000000000E+00
      0.00000000000000E+00  -4.88833540184809E+01  -7.83232246726883E+02   2.84789670774536E-16  -8.32115600745364E+02
      1.38996616763812E-22   9.75941520310298E-01   5.98242627824182E-19   2.40584796897021E-02   9.75941520310298E-01
      5.98242627824182E-19   2.40584796897021E-02   9.75941520310298E-01   5.98242627824182E-19   2.40584796897021E-02
     -1.00000000000000E+00   8.73198187325552E+24
      4.09500000000000E-08
      0.00000000000000E+00   0.00000000000000E+00   0.00000000000000E+00  -6.56927289565642E+01   7.96226275966715E+02
     -6.53961466223009E-17   7.30533547010151E+02  -4.57399799521927E-24   0.00000000000000E+00   0.00000000000000E+00
      0.00000000000000E+00  -3.54436020638600E+01  -7.96226353411211E+02  -3.01244185085954E-16  -8.31669955475071E+02
     -3.17155728759419E-23   9.75941520310298E-01   5.98242627824182E-19   2.40584796897021E-02   9.75941520310298E-01
      5.98242627824182E-19   2.40584796897021E-02   9.75941520310298E-01   5.98242627824182E-19   2.40584796897021E-02
     -1.00000000000000E+00   8.73198187325552E+24
      8.19100000000000E-08
      0.00000000000000E+00   0.00000000000000E+00   0.00000000000000E+00  -6.59757441029128E+01   7.96582932324857E+02
     -2.86899223891385E-17   7.30607188221944E+02  -4.81970863132609E-23   0.00000000000000E+00   0.00000000000000E+00
      0.00000000000000E+00  -3.41907310465983E+01  -7.96582935498939E+02   2.24456451632672E-16  -8.30773666545537E+02
     -5.65890495772170E-23   9.75941520310298E-01   5.98242627824182E-19   2.40584796897021E-02   9.75941520310298E-01
      5.98242627824182E-19   2.40584796897021E-02   9.75941520310298E-01   5.98242627824182E-19   2.40584796897021E-02
     -1.00000000000000E+00   8.73198187325552E+24
      1.63830000000000E-07
      0.00000000000000E+00   0.00000000000000E+00   0.00000000000000E+00  -6.10177907963396E+01   7.91756373477580E+02
      1.49778271296238E-17   7.30738582681240E+02   3.80284461420710E-23   0.00000000000000E+00   0.00000000000000E+00
      0.00000000000000E+00  -3.69537274375387E+01  -7.91756369008563E+02  -7.59439122065430E-17  -8.28710096446102E+02
      5.81389166665061E-23   9.75941520310298E-01   5.98242627824182E-19   2.40584796897021E-02   9.75941520310298E-01
      5.98242627824182E-19   2.40584796897021E-02   9.75941520310298E-01   5.98242627824182E-19   2.40584796897021E-02
     -1.00000000000000E+00   8.73198187325552E+24
      3.27670000000000E-07
      0.00000000000000E+00   0.00000000000000E+00   0.00000000000000E+00  -5.11100074136683E+01   7.82061481273394E+02
      5.64305458756952E-17   7.30951473859726E+02  -2.89560534242807E-23   0.00000000000000E+00   0.00000000000000E+00
      0.00000000000000E+00  -4.13630317712346E+01  -7.82061477564435E+02  -1.02946192102203E-16  -8.23424509335669E+02
     -1.17865502058626E-22   9.75941520310298E-01   5.98242627824182E-19   2.40584796897021E-02   9.75941520310298E-01
      5.98242627824182E-19   2.40584796897021E-02   9.75941520310298E-01   5.98242627824182E-19   2.40584796897021E-02
     -1.00000000000000E+00   8.73198187325552E+24
      6.55350000000000E-07
      0.00000000000000E+00   0.00000000000000E+00   0.00000000000000E+00  -3.60729356360935E+01   7.67310493957261E+02
      7.34124484663249E-17   7.31237558321168E+02   1.52340594386229E-23   0.00000000000000E+00   0.00000000000000E+00
      0.00000000000000E+00  -3.65659083900345E+01  -7.67310493094112E+02   4.09253304668593E-17  -8.03876401484146E+02
     -5.61732315776516E-23   9.75941520310298E-01   5.98242627824182E-19   2.40584796897021E-02   9.75941520310298E-01
      5.98242627824182E-19   2.40584796897021E-02   9.75941520310298E-01   5.98242627824182E-19   2.40584796897021E-02
     -1.00000000000000E+00   8.73198187325552E+24
